User input:
--------------------------------------------------------------
$comment
C1,3ea
$end
$molecule
0 1
C       1.8407995908    -2.5587517746     0.4173681076
C       0.5812782769    -3.4202595736     0.3037130019
C      -0.6798835222    -2.6300843086     0.6584497979
C      -0.8070002403    -1.3615537125    -0.2014895251
C       0.4605735174    -0.4961348597    -0.0823017344
C       1.7351149063    -1.2855888380    -0.4437268314
H      -1.5621663381    -3.2494510580     0.5249474621
H       0.4949270121    -3.7997029482    -0.7136337428
H       0.6686764995    -4.2891558075     0.9503872134
H       1.9929258156    -2.2830014212     1.4592680830
H       2.7148723860    -3.1299456468     0.1173418278
H       0.3711523294     0.3698739890    -0.7314769448
H       0.5475759032    -0.1141153861     0.9322261761
H       1.6270806291    -1.6095821835    -1.4780250548
H      -0.6477973705    -2.3582097479     1.7118065997
C       2.9785910259    -0.4298886756    -0.3742776558
C       3.7607110311    -0.1586826461    -1.5611477992
C       3.4359814368     0.1546189771     0.8638980293
C       4.8787137734     0.6066038222    -1.5295262478
H       3.4359784722    -0.5833721885    -2.4952149428
C       4.5486789533     0.9240233934     0.9312012925
H       2.8738861442    -0.0273608424     1.7624911223
C       5.3284801698     1.1863129958    -0.2751962120
H       5.4442998474     0.7942924444    -2.4246458905
H       4.8852613078     1.3563466285     1.8526577674
C       6.5130542806     2.0009811422    -0.2135112220
H       7.0460529208     2.1559417013    -1.1535300944
O       6.9221030665     2.5015146927     0.8115043308
C      -3.4104135224     0.6895025030     1.6788228776
C      -4.4122688319     0.8951638777     0.6931908721
C      -2.2867725067    -0.0152046708     1.3963321414
C      -5.5989373718     1.6273668272     0.9564370326
C      -4.2123381024     0.3494183514    -0.5877869790
C      -2.0692793611    -0.5741856674     0.1035526588
C      -6.5346742510     1.8025982143    -0.0130090222
H      -5.7472657231     2.0432252626     1.9381691890
C      -5.2072139224     0.5484720506    -1.5809511840
C      -3.0227863840    -0.3833531040    -0.8489259148
C      -6.3347170822     1.2538112224    -1.3024342116
H      -7.4318700537     2.3588509702     0.1934426333
H      -5.0551575575     0.1312153068    -2.5614853507
H      -2.8856430471    -0.7944505440    -1.8350421816
H      -7.0828199152     1.3993443271    -2.0616556859
H      -3.5550978231     1.1036693789     2.6619105651
H      -0.8786737287    -1.6841171323    -1.2388427127
H      -1.5471734252    -0.1535259218     2.1647816790
$end

$rem
MEM_TOTAL	20000
MEM_STATIC	5000
JOBTYPE    freq
SYMMETRY   FALSE
EXCHANGE     	HF
CORRELATION  	none  (built-in)
BASIS       	6-31g**
cis_state_deriv   1
cis_n_roots       3
cis_singlets      false
cis_triplets      true
max_scf_cycles=100
max_cis_cycles=100
$end

--------------------------------------------------------------

   15    -958.7027759692      8.27E-09 Convergence criterion met
 Total energy in the final basis set = -958.7027759692
 Frequency:        19.31                  28.72                  30.92
 Force Cnst:      0.0013                 0.0019                 0.0030
 Red. Mass:       5.9462                 3.8622                 5.2908
 IR Intens:        0.065                  1.033                  0.913
 Frequency:        54.10                  83.36                  90.76
 Force Cnst:      0.0089                 0.0141                 0.0191
 Red. Mass:       5.1854                 3.4521                 3.9273
 IR Intens:        0.741                  0.103                  0.366
 Frequency:       114.82                 170.87                 185.20
 Force Cnst:      0.0382                 0.0871                 0.0802
 Red. Mass:       4.9239                 5.0639                 3.9667
 IR Intens:        0.811                  2.508                  3.514
 Frequency:       202.75                 214.06                 216.20
 Force Cnst:      0.0920                 0.0851                 0.0851
 Red. Mass:       3.7999                 3.1530                 3.0906
 IR Intens:        0.547                  1.853                  4.600
 Frequency:       224.71                 267.57                 276.54
 Force Cnst:      0.1394                 0.1435                 0.1687
 Red. Mass:       4.6867                 3.4030                 3.7430
 IR Intens:        1.353                  1.433                  3.328
 Frequency:       308.53                 334.53                 376.58
 Force Cnst:      0.2030                 0.1618                 0.3145
 Red. Mass:       3.6196                 2.4546                 3.7637
 IR Intens:        2.223                  1.885                  1.954
 Frequency:       413.69                 415.54                 445.14
 Force Cnst:      0.3133                 0.3242                 0.3707
 Red. Mass:       3.1067                 3.1870                 3.1749
 IR Intens:        1.081                  1.105                  3.166
 Frequency:       460.20                 466.21                 500.45
 Force Cnst:      0.4847                 0.4702                 0.5070
 Red. Mass:       3.8848                 3.6714                 3.4357
 IR Intens:        5.424                  6.038                  7.543
 Frequency:       517.36                 533.65                 538.70
 Force Cnst:      0.2901                 0.5033                 0.4876
 Red. Mass:       1.8392                 2.9997                 2.8515
 IR Intens:        0.632                 12.965                  8.004
 Frequency:       561.21                 580.33                 597.70
 Force Cnst:      1.2076                 1.1324                 0.7560
 Red. Mass:       6.5077                 5.7070                 3.5915
 IR Intens:        0.094                 12.230                  1.841
 Frequency:       614.11                 664.02                 676.74
 Force Cnst:      1.0280                 1.6610                 1.1617
 Red. Mass:       4.6267                 6.3940                 4.3052
 IR Intens:        0.047                  2.553                  4.415
 Frequency:       682.91                 732.35                 785.72
 Force Cnst:      1.7611                 0.9003                 1.5683
 Red. Mass:       6.4092                 2.8491                 4.3115
 IR Intens:        2.570                  1.501                 20.872
 Frequency:       793.34                 822.08                 823.40
 Force Cnst:      0.4708                 0.5857                 0.9379
 Red. Mass:       1.2695                 1.4709                 2.3480
 IR Intens:        5.184                 40.403                 24.263
 Frequency:       838.33                 840.51                 842.16
 Force Cnst:      1.6296                 1.7558                 0.5611
 Red. Mass:       3.9355                 4.2183                 1.3429
 IR Intens:       30.582                 25.584                 39.946
 Frequency:       854.32                 866.10                 916.61
 Force Cnst:      1.3039                 1.4628                 0.9026
 Red. Mass:       3.0323                 3.3098                 1.8235
 IR Intens:        0.985                  3.067                 22.339
 Frequency:       925.41                 941.04                 952.73
 Force Cnst:      0.7625                 0.9852                 1.0686
 Red. Mass:       1.5112                 1.8883                 1.9982
 IR Intens:       22.058                  1.807                  1.275
 Frequency:       965.96                 988.37                1003.85
 Force Cnst:      0.8456                 1.3488                 1.6440
 Red. Mass:       1.5381                 2.3435                 2.7690
 IR Intens:       13.909                  7.946                 14.045
 Frequency:      1008.12                1020.82                1030.81
 Force Cnst:      1.6082                 1.0514                 0.8438
 Red. Mass:       2.6858                 1.7124                 1.3478
 IR Intens:        9.321                 12.997                  0.034
 Frequency:      1035.16                1044.87                1048.50
 Force Cnst:      2.2112                 0.8501                 1.3514
 Red. Mass:       3.5023                 1.3216                 2.0863
 IR Intens:        3.863                  0.417                 15.885
 Frequency:      1053.26                1087.89                1093.83
 Force Cnst:      1.0930                 0.9306                 2.3643
 Red. Mass:       1.6723                 1.3345                 3.3539
 IR Intens:        1.258                  1.816                 20.628
 Frequency:      1104.40                1105.05                1114.90
 Force Cnst:      2.0196                 0.9759                 1.3289
 Red. Mass:       2.8104                 1.3564                 1.8145
 IR Intens:       15.998                  1.201                  1.148
 Frequency:      1119.95                1163.27                1183.01
 Force Cnst:      0.9861                 1.3996                 1.1443
 Red. Mass:       1.3344                 1.7555                 1.3877
 IR Intens:        0.007                  0.023                  1.080
 Frequency:      1188.16                1199.91                1205.97
 Force Cnst:      1.7365                 1.4246                 2.2039
 Red. Mass:       2.0878                 1.6793                 2.5720
 IR Intens:        2.641                  7.824                  0.055
 Frequency:      1229.89                1239.81                1258.55
 Force Cnst:      1.2369                 1.6153                 2.1421
 Red. Mass:       1.3879                 1.7836                 2.2954
 IR Intens:        3.522                  2.229                  0.900
 Frequency:      1280.53                1287.27                1299.04
 Force Cnst:      1.1777                 1.5002                 1.7262
 Red. Mass:       1.2190                 1.5366                 1.7362
 IR Intens:        0.284                  1.875                  1.386
 Frequency:      1314.40                1323.43                1340.95
 Force Cnst:      2.5441                 1.6646                 2.3105
 Red. Mass:       2.4994                 1.6131                 2.1809
 IR Intens:        0.215                  3.936                  0.095
 Frequency:      1377.39                1378.15                1389.69
 Force Cnst:      1.5903                 1.8940                 2.1779
 Red. Mass:       1.4227                 1.6926                 1.9141
 IR Intens:        2.125                  0.096                  6.189
 Frequency:      1396.26                1401.91                1416.63
 Force Cnst:      1.9771                 2.7008                 1.5119
 Red. Mass:       1.7212                 2.3324                 1.2787
 IR Intens:        5.238                 17.865                  0.264
 Frequency:      1439.12                1456.33                1475.83
 Force Cnst:      1.7360                 1.6137                 2.0819
 Red. Mass:       1.4227                 1.2914                 1.6223
 IR Intens:        0.920                  2.383                  0.200
 Frequency:      1480.24                1487.22                1502.64
 Force Cnst:      3.4332                 1.8715                 2.5357
 Red. Mass:       2.6594                 1.4361                 1.9061
 IR Intens:        0.633                  5.674                  0.890
 Frequency:      1504.48                1508.16                1511.18
 Force Cnst:      1.8715                 2.8047                 1.9961
 Red. Mass:       1.4034                 2.0928                 1.4836
 IR Intens:        6.407                  2.901                  2.643
 Frequency:      1532.85                1537.74                1545.17
 Force Cnst:      2.4285                 1.9682                 2.3120
 Red. Mass:       1.7543                 1.4127                 1.6436
 IR Intens:        2.996                  6.925                  7.038
 Frequency:      1561.38                1576.34                1600.37
 Force Cnst:      2.3803                 3.3671                 3.2649
 Red. Mass:       1.6572                 2.2999                 2.1636
 IR Intens:        7.921                 10.997                  2.956
 Frequency:      1614.51                1617.97                1622.89
 Force Cnst:      1.6831                 1.7156                 1.7135
 Red. Mass:       1.0959                 1.1123                 1.1042
 IR Intens:        0.795                  0.326                  6.334
 Frequency:      1631.43                1633.21                1638.78
 Force Cnst:      4.6021                 2.8389                 1.9883
 Red. Mass:       2.9347                 1.8064                 1.2566
 IR Intens:        2.121                  0.111                  1.856
 Frequency:      1675.43                1713.09                1778.88
 Force Cnst:      4.9863                 9.8499                12.2236
 Red. Mass:       3.0149                 5.6967                 6.5562
 IR Intens:       17.095                118.150                  0.563
 Frequency:      1809.28                1847.00                3163.81
 Force Cnst:      9.8520                12.1401                 6.3854
 Red. Mass:       5.1081                 6.0400                 1.0827
 IR Intens:       10.809                 10.366                  1.988
 Frequency:      3166.97                3172.76                3177.14
 Force Cnst:      6.3358                 6.4122                 6.3394
 Red. Mass:       1.0722                 1.0811                 1.0659
 IR Intens:       15.124                 24.529                 36.717
 Frequency:      3178.19                3179.11                3190.14
 Force Cnst:      6.4532                 6.3500                 6.3773
 Red. Mass:       1.0843                 1.0664                 1.0636
 IR Intens:       92.631                 18.579                 43.105
 Frequency:      3217.65                3222.63                3227.39
 Force Cnst:      6.6680                 6.7425                 6.7742
 Red. Mass:       1.0931                 1.1019                 1.1038
 IR Intens:       81.148                 40.919                 38.633
 Frequency:      3235.33                3332.49                3335.26
 Force Cnst:      6.8093                 7.1309                 7.1334
 Red. Mass:       1.1041                 1.0898                 1.0884
 IR Intens:       71.232                  5.840                  3.612
 Frequency:      3337.29                3341.23                3342.48
 Force Cnst:      7.1398                 7.1471                 7.1723
 Red. Mass:       1.0881                 1.0866                 1.0896
 IR Intens:       13.616                  6.841                  0.206
 Frequency:      3355.52                3355.77                3361.83
 Force Cnst:      7.2245                 7.2741                 7.3010
 Red. Mass:       1.0890                 1.0963                 1.0964
 IR Intens:       18.067                 36.161                 38.898
 Frequency:      3362.63                3369.38                3404.12
 Force Cnst:      7.2949                 7.3516                 7.4596
 Red. Mass:       1.0950                 1.0991                 1.0926
 IR Intens:       16.841                 35.750                  1.481

 STANDARD THERMODYNAMIC QUANTITIES AT   298.15 K  AND     1.00 ATM

   This Molecule has  0 Imaginary Frequencies
   Zero point vibrational energy:      257.083 kcal/mol

   Atom    1 Element C  Has Mass   12.00000
   Atom    2 Element C  Has Mass   12.00000
   Atom    3 Element C  Has Mass   12.00000
   Atom    4 Element C  Has Mass   12.00000
   Atom    5 Element C  Has Mass   12.00000
   Atom    6 Element C  Has Mass   12.00000
   Atom    7 Element H  Has Mass    1.00783
   Atom    8 Element H  Has Mass    1.00783
   Atom    9 Element H  Has Mass    1.00783
   Atom   10 Element H  Has Mass    1.00783
   Atom   11 Element H  Has Mass    1.00783
   Atom   12 Element H  Has Mass    1.00783
   Atom   13 Element H  Has Mass    1.00783
   Atom   14 Element H  Has Mass    1.00783
   Atom   15 Element H  Has Mass    1.00783
   Atom   16 Element C  Has Mass   12.00000
   Atom   17 Element C  Has Mass   12.00000
   Atom   18 Element C  Has Mass   12.00000
   Atom   19 Element C  Has Mass   12.00000
   Atom   20 Element H  Has Mass    1.00783
   Atom   21 Element C  Has Mass   12.00000
   Atom   22 Element H  Has Mass    1.00783
   Atom   23 Element C  Has Mass   12.00000
   Atom   24 Element H  Has Mass    1.00783
   Atom   25 Element H  Has Mass    1.00783
   Atom   26 Element C  Has Mass   12.00000
   Atom   27 Element H  Has Mass    1.00783
   Atom   28 Element O  Has Mass   15.99491
   Atom   29 Element C  Has Mass   12.00000
   Atom   30 Element C  Has Mass   12.00000
   Atom   31 Element C  Has Mass   12.00000
   Atom   32 Element C  Has Mass   12.00000
   Atom   33 Element C  Has Mass   12.00000
   Atom   34 Element C  Has Mass   12.00000
   Atom   35 Element C  Has Mass   12.00000
   Atom   36 Element H  Has Mass    1.00783
   Atom   37 Element C  Has Mass   12.00000
   Atom   38 Element C  Has Mass   12.00000
   Atom   39 Element C  Has Mass   12.00000
   Atom   40 Element H  Has Mass    1.00783
   Atom   41 Element H  Has Mass    1.00783
   Atom   42 Element H  Has Mass    1.00783
   Atom   43 Element H  Has Mass    1.00783
   Atom   44 Element H  Has Mass    1.00783
   Atom   45 Element H  Has Mass    1.00783
   Atom   46 Element H  Has Mass    1.00783
   Molecular Mass:   314.167170 amu
   Principal axes and moments of inertia in atomic units:
                             1           2           3
    Eigenvalues --     3702.72201 20723.22713 22276.28061
          X               0.99998    -0.00608    -0.00146
          Y               0.00608     0.99997    -0.00429
          Z               0.00149     0.00428     0.99999
   Rotational Symmetry Number is   1
   The Molecule is an Asymmetric Top
   Translational Enthalpy:        0.889 kcal/mol
   Rotational Enthalpy:           0.889 kcal/mol
   Vibrational Enthalpy:        267.171 kcal/mol
   gas constant (RT):             0.592 kcal/mol
   Translational Entropy:        43.130  cal/mol.K
   Rotational Entropy:           35.790  cal/mol.K
   Vibrational Entropy:          67.197  cal/mol.K

   Total Enthalpy:              269.541 kcal/mol
   Total Entropy:               146.117  cal/mol.K

 Total job time:  31348.95s(wall), 28949.14s(cpu)
        *  Thank you very much for using Q-Chem.  Have a nice day.  *

User input:
--------------------------------------------------------------
$molecule
read
$end

$rem
scf_convergence=10
cis_convergence=10
thresh=12
max_scf_cycles=100
max_cis_cycles=100
MEM_TOTAL	20000
MEM_STATIC	5000
JOBTYPE    force
SYMMETRY   FALSE
EXCHANGE     	HF
CORRELATION  	none  (built-in)
BASIS       	6-31g**
cis_state_deriv   1
cis_n_roots       3
cis_singlets      false
cis_triplets      true
scf_guess read
$end

--------------------------------------------------------------

    6    -958.7027759545      6.99E-11 Convergence criterion met
 Total energy in the final basis set = -958.7027759545
 Total job time:  4848.10s(wall), 4828.93s(cpu)

User input:
--------------------------------------------------------------
$molecule
read
$end

$rem
scf_convergence=10
cis_convergence=10
thresh=12
max_scf_cycles=100
max_cis_cycles=100
MEM_TOTAL	20000
MEM_STATIC	5000
JOBTYPE    Force
SYMMETRY   FALSE
EXCHANGE     	HF
CORRELATION  	none  (built-in)
BASIS       	6-31g**
cis_state_deriv   2
cis_n_roots       3
cis_singlets      false
cis_triplets      true
scf_guess read
$end

--------------------------------------------------------------

    2    -958.7027759548      3.06E-11 Convergence criterion met
 Total energy in the final basis set = -958.7027759548
        *  Thank you very much for using Q-Chem.  Have a nice day.  *

             Standard Nuclear Orientation (Angstroms)
    I     Atom           X                Y                Z
 ----------------------------------------------------------------
    1      C       1.8407995908    -2.5587517746     0.4173681076
    2      C       0.5812782769    -3.4202595736     0.3037130019
    3      C      -0.6798835222    -2.6300843086     0.6584497979
    4      C      -0.8070002403    -1.3615537125    -0.2014895251
    5      C       0.4605735174    -0.4961348597    -0.0823017344
    6      C       1.7351149063    -1.2855888380    -0.4437268314
    7      H      -1.5621663381    -3.2494510580     0.5249474621
    8      H       0.4949270121    -3.7997029482    -0.7136337428
    9      H       0.6686764995    -4.2891558075     0.9503872134
   10      H       1.9929258156    -2.2830014212     1.4592680830
   11      H       2.7148723860    -3.1299456468     0.1173418278
   12      H       0.3711523294     0.3698739890    -0.7314769448
   13      H       0.5475759032    -0.1141153861     0.9322261761
   14      H       1.6270806291    -1.6095821835    -1.4780250548
   15      H      -0.6477973705    -2.3582097479     1.7118065997
   16      C       2.9785910259    -0.4298886756    -0.3742776558
   17      C       3.7607110311    -0.1586826461    -1.5611477992
   18      C       3.4359814368     0.1546189771     0.8638980293
   19      C       4.8787137734     0.6066038222    -1.5295262478
   20      H       3.4359784722    -0.5833721885    -2.4952149428
   21      C       4.5486789533     0.9240233934     0.9312012925
   22      H       2.8738861442    -0.0273608424     1.7624911223
   23      C       5.3284801698     1.1863129958    -0.2751962120
   24      H       5.4442998474     0.7942924444    -2.4246458905
   25      H       4.8852613078     1.3563466285     1.8526577674
   26      C       6.5130542806     2.0009811422    -0.2135112220
   27      H       7.0460529208     2.1559417013    -1.1535300944
   28      O       6.9221030665     2.5015146927     0.8115043308
   29      C      -3.4104135224     0.6895025030     1.6788228776
   30      C      -4.4122688319     0.8951638777     0.6931908721
   31      C      -2.2867725067    -0.0152046708     1.3963321414
   32      C      -5.5989373718     1.6273668272     0.9564370326
   33      C      -4.2123381024     0.3494183514    -0.5877869790
   34      C      -2.0692793611    -0.5741856674     0.1035526588
   35      C      -6.5346742510     1.8025982143    -0.0130090222
   36      H      -5.7472657231     2.0432252626     1.9381691890
   37      C      -5.2072139224     0.5484720506    -1.5809511840
   38      C      -3.0227863840    -0.3833531040    -0.8489259148
   39      C      -6.3347170822     1.2538112224    -1.3024342116
   40      H      -7.4318700537     2.3588509702     0.1934426333
   41      H      -5.0551575575     0.1312153068    -2.5614853507
   42      H      -2.8856430471    -0.7944505440    -1.8350421816
   43      H      -7.0828199152     1.3993443271    -2.0616556859
   44      H      -3.5550978231     1.1036693789     2.6619105651
   45      H      -0.8786737287    -1.6841171323    -1.2388427127
   46      H      -1.5471734252    -0.1535259218     2.1647816790
 ----------------------------------------------------------------

    2    -958.7027759548      2.18E-11 Convergence criterion met
 Total energy in the final basis set = -958.7027759548

               CIS Excitation Energies
 ---------------------------------------------------

 Excited state   1: excitation energy (eV) =    2.5554
    Total energy for state   1:   -958.608867032942
    Multiplicity: Triplet
    Trans. Mom.:  0.0000 X   0.0000 Y   0.0000 Z
    Strength   :  0.0000
    D( 81) --> V(  4) amplitude = -0.2878
    D( 82) --> V(  1) amplitude = -0.8188
    D( 83) --> V(  1) amplitude =  0.3527

 Excited state   2: excitation energy (eV) =    2.7854
    Total energy for state   2:   -958.600415777765
    Multiplicity: Triplet
    Trans. Mom.:  0.0000 X   0.0000 Y   0.0000 Z
    Strength   :  0.0000
    D( 80) --> V(  5) amplitude = -0.3256
    D( 83) --> V(  3) amplitude =  0.3450
    D( 84) --> V(  2) amplitude = -0.7991

 ---------------------------------------------------

                    Orbital Energies (a.u.)
 --------------------------------------------------------------

 Alpha MOs
 -- Occupied --
-20.548 -11.322 -11.272 -11.259 -11.253 -11.248 -11.244 -11.244
-11.242 -11.239 -11.239 -11.238 -11.237 -11.234 -11.233 -11.233
-11.231 -11.231 -11.231 -11.229 -11.229 -11.228 -11.225 -11.224
 -1.378  -1.180  -1.162  -1.137  -1.109  -1.061  -1.048  -1.034
 -1.031  -0.998  -0.993  -0.974  -0.898  -0.864  -0.847  -0.840
 -0.827  -0.814  -0.804  -0.779  -0.767  -0.706  -0.702  -0.691
 -0.680  -0.657  -0.649  -0.640  -0.623  -0.619  -0.616  -0.603
 -0.602  -0.598  -0.588  -0.580  -0.571  -0.566  -0.556  -0.543
 -0.539  -0.525  -0.524  -0.520  -0.502  -0.495  -0.489  -0.481
 -0.480  -0.472  -0.460  -0.452  -0.438  -0.431  -0.416  -0.380
 -0.355  -0.318  -0.311  -0.288

          Ground-State Mulliken Net Atomic Charges

     Atom                 Charge (a.u.)
  ----------------------------------------
      1 C                    -0.199234
      2 C                    -0.228487
      3 C                    -0.198708
      4 C                    -0.161613
      5 C                    -0.182291
      6 C                    -0.167659
      7 H                     0.126572
      8 H                     0.110233
      9 H                     0.122168
     10 H                     0.110154
     11 H                     0.126072
     12 H                     0.134407
     13 H                     0.110001
     14 H                     0.125272
     15 H                     0.107462
     16 C                     0.026614
     17 C                    -0.173895
     18 C                    -0.153118
     19 C                    -0.108896
     20 H                     0.151055
     21 C                    -0.086323
     22 H                     0.152778
     23 C                    -0.179970
     24 H                     0.165275
     25 H                     0.197530
     26 C                     0.396409
     27 H                     0.107162
     28 O                    -0.539168
     29 C                    -0.124921
     30 C                    -0.041060
     31 C                    -0.149098
     32 C                    -0.125231
     33 C                    -0.026907
     34 C                     0.010074
     35 C                    -0.159915
     36 H                     0.152108
     37 C                    -0.127474
     38 C                    -0.158979
     39 C                    -0.157622
     40 H                     0.150748
     41 H                     0.150510
     42 H                     0.146709
     43 H                     0.150670
     44 H                     0.153500
     45 H                     0.120295
     46 H                     0.146789
  ----------------------------------------
  Sum of atomic charges =     0.000000

                    Cartesian Multipole Moments
 -----------------------------------------------------------------
    Charge (ESU x 10^10)
                 0.0000
    Dipole Moment (Debye)
         X      -2.8763      Y      -2.5997      Z      -2.1296
       Tot       4.4234
    Quadrupole Moments (Debye-Ang)
        XX    -165.1668     XY     -18.5554     YY    -149.3053
        XZ     -14.8463     YZ      -1.3609     ZZ    -130.1927

 Total job time:  2255.00s(wall), 2250.19s(cpu)
        *  Thank you very much for using Q-Chem.  Have a nice day.  *
