User input:
--------------------------------------------------------------
$comment
C1,3ea
$end
$molecule
0 1
C       1.5506838118    -2.3831453682    -0.7946898669
C       0.2149831466    -3.1162096710    -0.9404322540
C      -0.6279121441    -3.0309405891     0.3362806738
C      -0.8060879143    -1.6091337328     0.9149049602
C       0.5453297106    -0.8577894710     0.9480926580
C       1.3543086807    -0.9177393081    -0.3632479737
H      -1.6007561327    -3.4860807051     0.1762020689
H      -0.3310848846    -2.7159641795    -1.7888897053
H       0.3984273694    -4.1620644383    -1.1725394274
H       2.1602937475    -2.9000095142    -0.0559353655
H       2.1014545234    -2.4196299155    -1.7304550346
H      -1.0878880292    -1.7471521476     1.9539514517
H       0.3789338116     0.1766201123     1.2318529737
H       1.1481337003    -1.3018045984     1.7381524273
H       0.7752161119    -0.4238786348    -1.1382738595
H      -0.1314451150    -3.6273492740     1.1001899251
C       2.6587561283    -0.1616742558    -0.2495317019
C       2.8830955206     1.0449463786    -1.0179154007
C       3.7174905411    -0.5849070364     0.6347694148
C       4.0347601060     1.7534927767    -0.9295615668
H       2.1029188778     1.3824665525    -1.6779294937
C       4.8811169489     0.0996555140     0.7473005435
H       3.5784645382    -1.4735464513     1.2241255638
C       5.0947449682     1.3109256442    -0.0405206231
H       4.1788632199     2.6464927914    -1.5110873809
H       5.6658841177    -0.2187860250     1.4045716118
C       6.3287937066     2.0426909434     0.0696135792
H       6.4194991922     2.9385360766    -0.5476213672
O       7.2367408063     1.7077053009     0.7990386082
C      -2.9179313506    -0.3104585867     1.1425463596
C      -4.0100081943     0.4638484825     0.6700418802
C      -1.9502553479    -0.7975196728     0.3131257594
C      -5.0107582351     0.9666589482     1.5440384502
C      -4.1072137925     0.7418091631    -0.7048354540
C      -2.0683131473    -0.5055374080    -1.0776708884
C      -6.0445532405     1.7042879624     1.0624341340
H      -4.9377248844     0.7544404094     2.5967372912
C      -5.1985665660     1.5147769410    -1.1813425615
C      -3.1008419617     0.2306592508    -1.5630709006
H      -1.3346987423    -0.8717714031    -1.7674265203
C      -6.1409245303     1.9834192571    -0.3229485232
H      -6.7976444221     2.0813588691     1.7316641600
H      -5.2682910749     1.7241529627    -2.2349310849
H      -3.1647151931     0.4333721720    -2.6185432006
H      -6.9656155401     2.5686578555    -0.6895181838
H      -2.8663327110    -0.5123998957     2.1991100952
$end

$rem
MEM_TOTAL	20000
MEM_STATIC	5000
JOBTYPE    freq
SYMMETRY   FALSE
EXCHANGE     	HF
CORRELATION  	none  (built-in)
BASIS       	6-31g**
cis_state_deriv   1
cis_n_roots       3
cis_singlets      false
cis_triplets      true
max_scf_cycles=100
max_cis_cycles=100
$end

--------------------------------------------------------------

   16    -958.6941077820      3.27E-09 Convergence criterion met
 Total energy in the final basis set = -958.6941077820
 Frequency:        11.18                  28.59                  37.82
 Force Cnst:      0.0004                 0.0020                 0.0049
 Red. Mass:       5.5297                 4.1202                 5.8389
 IR Intens:        0.071                  1.983                  0.493
 Frequency:        42.41                  88.74                  98.54
 Force Cnst:      0.0047                 0.0194                 0.0214
 Red. Mass:       4.4546                 4.1825                 3.7476
 IR Intens:        0.112                  1.198                  0.423
 Frequency:       116.10                 156.18                 182.07
 Force Cnst:      0.0428                 0.0714                 0.0725
 Red. Mass:       5.3945                 4.9649                 3.7123
 IR Intens:        1.221                  0.772                  0.992
 Frequency:       201.42                 210.60                 224.86
 Force Cnst:      0.0931                 0.0845                 0.1110
 Red. Mass:       3.8959                 3.2338                 3.7245
 IR Intens:        2.445                  7.587                  1.071
 Frequency:       243.19                 258.56                 281.91
 Force Cnst:      0.1198                 0.1846                 0.1414
 Red. Mass:       3.4382                 4.6879                 3.0207
 IR Intens:        1.674                  0.175                  3.857
 Frequency:       308.30                 349.25                 392.29
 Force Cnst:      0.1915                 0.1617                 0.2953
 Red. Mass:       3.4200                 2.2507                 3.2564
 IR Intens:        2.589                  1.855                  0.788
 Frequency:       415.15                 417.04                 449.93
 Force Cnst:      0.3349                 0.3954                 0.4097
 Red. Mass:       3.2978                 3.8587                 3.4346
 IR Intens:        0.016                  2.288                  0.921
 Frequency:       454.84                 467.18                 502.90
 Force Cnst:      0.3641                 0.5470                 0.5491
 Red. Mass:       2.9875                 4.2534                 3.6847
 IR Intens:       14.515                  2.280                  3.426
 Frequency:       514.35                 524.45                 537.99
 Force Cnst:      0.3272                 0.4958                 0.4392
 Red. Mass:       2.0993                 3.0593                 2.5755
 IR Intens:        2.499                  3.497                 14.443
 Frequency:       562.83                 577.40                 604.11
 Force Cnst:      1.2704                 1.3060                 0.7179
 Red. Mass:       6.8068                 6.6488                 3.3389
 IR Intens:        0.072                 13.460                  0.919
 Frequency:       657.29                 667.80                 676.49
 Force Cnst:      1.6266                 1.3725                 1.3015
 Red. Mass:       6.3901                 5.2236                 4.8271
 IR Intens:        1.537                  4.390                  0.789
 Frequency:       698.95                 740.88                 755.91
 Force Cnst:      1.3761                 0.8672                 1.3551
 Red. Mass:       4.7808                 2.6816                 4.0253
 IR Intens:        2.496                  3.230                  4.484
 Frequency:       793.86                 814.92                 821.21
 Force Cnst:      0.4671                 0.8568                 0.5667
 Red. Mass:       1.2579                 2.1898                 1.4263
 IR Intens:        5.101                 26.947                 46.735
 Frequency:       837.41                 841.67                 843.11
 Force Cnst:      1.5303                 1.7428                 0.6019
 Red. Mass:       3.7037                 4.1756                 1.4371
 IR Intens:       42.570                 23.016                 30.939
 Frequency:       854.72                 861.57                 918.14
 Force Cnst:      1.2356                 1.7506                 1.2798
 Red. Mass:       2.8707                 4.0027                 2.5768
 IR Intens:        1.404                  1.436                 20.095
 Frequency:       924.91                 937.95                 943.24
 Force Cnst:      0.7760                 0.8313                 1.1730
 Red. Mass:       1.5397                 1.6037                 2.2377
 IR Intens:       22.216                 10.914                  1.864
 Frequency:       960.53                 969.65                 997.77
 Force Cnst:      1.1520                 0.8570                 1.7063
 Red. Mass:       2.1193                 1.5470                 2.9089
 IR Intens:        5.711                  9.830                  5.869
 Frequency:      1005.16                1019.95                1031.20
 Force Cnst:      2.0031                 0.9925                 0.9355
 Red. Mass:       3.3650                 1.6193                 1.4932
 IR Intens:       20.698                 17.056                  0.637
 Frequency:      1033.53                1044.94                1053.13
 Force Cnst:      1.7992                 0.8372                 1.0923
 Red. Mass:       2.8588                 1.3014                 1.6716
 IR Intens:        3.887                  0.143                  1.236
 Frequency:      1068.19                1088.68                1095.52
 Force Cnst:      1.4709                 0.9302                 1.9967
 Red. Mass:       2.1879                 1.3321                 2.8237
 IR Intens:       24.148                  2.099                  3.968
 Frequency:      1104.43                1105.56                1120.44
 Force Cnst:      2.4569                 0.9704                 0.9849
 Red. Mass:       3.4187                 1.3475                 1.3315
 IR Intens:       19.703                  1.078                  0.002
 Frequency:      1122.47                1138.20                1171.54
 Force Cnst:      1.3146                 1.4275                 1.8414
 Red. Mass:       1.7710                 1.8703                 2.2771
 IR Intens:        1.076                  0.242                  9.003
 Frequency:      1192.12                1199.70                1215.03
 Force Cnst:      1.8497                 1.4098                 1.5118
 Red. Mass:       2.2091                 1.6625                 1.7381
 IR Intens:        0.527                  8.531                  0.344
 Frequency:      1231.22                1246.38                1249.32
 Force Cnst:      1.2357                 1.5653                 1.1229
 Red. Mass:       1.3835                 1.7101                 1.2211
 IR Intens:        2.767                  6.795                  1.090
 Frequency:      1282.99                1291.42                1307.15
 Force Cnst:      1.1490                 1.3743                 1.8780
 Red. Mass:       1.1847                 1.3986                 1.8655
 IR Intens:        0.132                  0.646                  0.400
 Frequency:      1307.68                1311.62                1334.71
 Force Cnst:      2.4089                 1.7747                 3.0591
 Red. Mass:       2.3909                 1.7509                 2.9145
 IR Intens:        0.408                  3.357                  1.175
 Frequency:      1367.57                1391.21                1392.45
 Force Cnst:      1.6858                 2.1701                 2.0493
 Red. Mass:       1.5298                 1.9030                 1.7939
 IR Intens:        1.590                  9.301                  6.055
 Frequency:      1401.47                1412.05                1434.97
 Force Cnst:      3.0904                 1.4985                 1.7132
 Red. Mass:       2.6705                 1.2756                 1.4121
 IR Intens:       10.027                  4.815                  3.324
 Frequency:      1447.22                1453.52                1475.09
 Force Cnst:      2.1520                 1.8723                 1.7189
 Red. Mass:       1.7439                 1.5041                 1.3408
 IR Intens:        9.536                  8.836                  2.837
 Frequency:      1485.02                1489.19                1496.20
 Force Cnst:      4.0729                 1.8310                 1.9975
 Red. Mass:       3.1346                 1.4014                 1.5145
 IR Intens:        0.932                  3.349                  0.749
 Frequency:      1503.39                1511.74                1519.95
 Force Cnst:      3.1918                 1.9322                 2.1062
 Red. Mass:       2.3969                 1.4350                 1.5473
 IR Intens:        1.123                  7.425                  4.283
 Frequency:      1536.24                1538.19                1543.41
 Force Cnst:      2.4033                 2.0132                 2.0702
 Red. Mass:       1.7284                 1.4441                 1.4750
 IR Intens:        4.676                  5.105                 11.610
 Frequency:      1561.46                1578.26                1601.54
 Force Cnst:      2.3505                 3.2453                 3.0644
 Red. Mass:       1.6362                 2.2113                 2.0278
 IR Intens:       13.815                  7.854                  2.724
 Frequency:      1613.35                1616.53                1625.91
 Force Cnst:      1.6758                 1.7321                 1.9022
 Red. Mass:       1.0927                 1.1250                 1.2213
 IR Intens:        1.186                  0.919                  5.510
 Frequency:      1632.05                1634.27                1642.44
 Force Cnst:      4.7561                 2.7186                 1.8168
 Red. Mass:       3.0306                 1.7276                 1.1431
 IR Intens:        1.636                  2.177                  7.758
 Frequency:      1676.69                1713.01                1776.69
 Force Cnst:      4.8419                 9.8432                11.9793
 Red. Mass:       2.9232                 5.6933                 6.4411
 IR Intens:       18.909                125.067                  0.149
 Frequency:      1806.55                1845.27                3166.76
 Force Cnst:      9.7734                12.0034                 6.3222
 Red. Mass:       5.0827                 5.9832                 1.0700
 IR Intens:       11.435                  8.474                 23.607
 Frequency:      3173.22                3177.03                3178.23
 Force Cnst:      6.3315                 6.3534                 6.4486
 Red. Mass:       1.0672                 1.0684                 1.0835
 IR Intens:        7.381                 62.618                 66.552
 Frequency:      3194.81                3203.22                3208.46
 Force Cnst:      6.4265                 6.5554                 6.5669
 Red. Mass:       1.0686                 1.0844                 1.0827
 IR Intens:       41.722                 32.273                 44.794
 Frequency:      3219.71                3223.91                3232.82
 Force Cnst:      6.7048                 6.7208                 6.7724
 Red. Mass:       1.0978                 1.0975                 1.0998
 IR Intens:       58.124                 41.378                 12.751
 Frequency:      3240.38                3333.64                3336.11
 Force Cnst:      6.8082                 7.1290                 7.1430
 Red. Mass:       1.1005                 1.0888                 1.0893
 IR Intens:      133.653                  3.723                  6.719
 Frequency:      3339.53                3341.82                3343.92
 Force Cnst:      7.1649                 7.1493                 7.1828
 Red. Mass:       1.0904                 1.0865                 1.0903
 IR Intens:       11.224                  6.986                  2.444
 Frequency:      3356.30                3356.59                3362.85
 Force Cnst:      7.2772                 7.2287                 7.2963
 Red. Mass:       1.0965                 1.0890                 1.0951
 IR Intens:       43.820                 16.604                 14.757
 Frequency:      3369.59                3403.98                3406.98
 Force Cnst:      7.3529                 7.4589                 7.4670
 Red. Mass:       1.0991                 1.0926                 1.0918
 IR Intens:       40.143                  1.498                 21.705

 STANDARD THERMODYNAMIC QUANTITIES AT   298.15 K  AND     1.00 ATM

   This Molecule has  0 Imaginary Frequencies
   Zero point vibrational energy:      257.385 kcal/mol

   Atom    1 Element C  Has Mass   12.00000
   Atom    2 Element C  Has Mass   12.00000
   Atom    3 Element C  Has Mass   12.00000
   Atom    4 Element C  Has Mass   12.00000
   Atom    5 Element C  Has Mass   12.00000
   Atom    6 Element C  Has Mass   12.00000
   Atom    7 Element H  Has Mass    1.00783
   Atom    8 Element H  Has Mass    1.00783
   Atom    9 Element H  Has Mass    1.00783
   Atom   10 Element H  Has Mass    1.00783
   Atom   11 Element H  Has Mass    1.00783
   Atom   12 Element H  Has Mass    1.00783
   Atom   13 Element H  Has Mass    1.00783
   Atom   14 Element H  Has Mass    1.00783
   Atom   15 Element H  Has Mass    1.00783
   Atom   16 Element H  Has Mass    1.00783
   Atom   17 Element C  Has Mass   12.00000
   Atom   18 Element C  Has Mass   12.00000
   Atom   19 Element C  Has Mass   12.00000
   Atom   20 Element C  Has Mass   12.00000
   Atom   21 Element H  Has Mass    1.00783
   Atom   22 Element C  Has Mass   12.00000
   Atom   23 Element H  Has Mass    1.00783
   Atom   24 Element C  Has Mass   12.00000
   Atom   25 Element H  Has Mass    1.00783
   Atom   26 Element H  Has Mass    1.00783
   Atom   27 Element C  Has Mass   12.00000
   Atom   28 Element H  Has Mass    1.00783
   Atom   29 Element O  Has Mass   15.99491
   Atom   30 Element C  Has Mass   12.00000
   Atom   31 Element C  Has Mass   12.00000
   Atom   32 Element C  Has Mass   12.00000
   Atom   33 Element C  Has Mass   12.00000
   Atom   34 Element C  Has Mass   12.00000
   Atom   35 Element C  Has Mass   12.00000
   Atom   36 Element C  Has Mass   12.00000
   Atom   37 Element H  Has Mass    1.00783
   Atom   38 Element C  Has Mass   12.00000
   Atom   39 Element C  Has Mass   12.00000
   Atom   40 Element H  Has Mass    1.00783
   Atom   41 Element C  Has Mass   12.00000
   Atom   42 Element H  Has Mass    1.00783
   Atom   43 Element H  Has Mass    1.00783
   Atom   44 Element H  Has Mass    1.00783
   Atom   45 Element H  Has Mass    1.00783
   Atom   46 Element H  Has Mass    1.00783
   Molecular Mass:   314.167170 amu
   Principal axes and moments of inertia in atomic units:
                             1           2           3
    Eigenvalues --     3717.53363 19014.03144 20755.70793
          X               0.99998    -0.00534    -0.00186
          Y               0.00531     0.99991    -0.01263
          Z               0.00193     0.01262     0.99992
   Rotational Symmetry Number is   1
   The Molecule is an Asymmetric Top
   Translational Enthalpy:        0.889 kcal/mol
   Rotational Enthalpy:           0.889 kcal/mol
   Vibrational Enthalpy:        267.446 kcal/mol
   gas constant (RT):             0.592 kcal/mol
   Translational Entropy:        43.130  cal/mol.K
   Rotational Entropy:           35.638  cal/mol.K
   Vibrational Entropy:          67.951  cal/mol.K

   Total Enthalpy:              269.816 kcal/mol
   Total Entropy:               146.719  cal/mol.K

 Total job time:  32304.31s(wall), 30000.79s(cpu)
        *  Thank you very much for using Q-Chem.  Have a nice day.  *

User input:
--------------------------------------------------------------
$molecule
read
$end

$rem
scf_convergence=10
cis_convergence=10
thresh=12
max_scf_cycles=100
max_cis_cycles=100
MEM_TOTAL	20000
MEM_STATIC	5000
JOBTYPE    force
SYMMETRY   FALSE
EXCHANGE     	HF
CORRELATION  	none  (built-in)
BASIS       	6-31g**
cis_state_deriv   1
cis_n_roots       3
cis_singlets      false
cis_triplets      true
scf_guess read
$end

--------------------------------------------------------------

    5    -958.6941077743      6.81E-11 Convergence criterion met
 Total energy in the final basis set = -958.6941077743
 Total job time:  4906.46s(wall), 4891.05s(cpu)

User input:
--------------------------------------------------------------
$molecule
read
$end

$rem
scf_convergence=10
cis_convergence=10
thresh=12
max_scf_cycles=100
max_cis_cycles=100
MEM_TOTAL	20000
MEM_STATIC	5000
JOBTYPE    Force
SYMMETRY   FALSE
EXCHANGE     	HF
CORRELATION  	none  (built-in)
BASIS       	6-31g**
cis_state_deriv   2
cis_n_roots       3
cis_singlets      false
cis_triplets      true
scf_guess read
$end

--------------------------------------------------------------

    2    -958.6941077741      2.65E-11 Convergence criterion met
 Total energy in the final basis set = -958.6941077741
        *  Thank you very much for using Q-Chem.  Have a nice day.  *

             Standard Nuclear Orientation (Angstroms)
    I     Atom           X                Y                Z
 ----------------------------------------------------------------
    1      C       1.5506838118    -2.3831453682    -0.7946898669
    2      C       0.2149831466    -3.1162096710    -0.9404322540
    3      C      -0.6279121441    -3.0309405891     0.3362806738
    4      C      -0.8060879143    -1.6091337328     0.9149049602
    5      C       0.5453297106    -0.8577894710     0.9480926580
    6      C       1.3543086807    -0.9177393081    -0.3632479737
    7      H      -1.6007561327    -3.4860807051     0.1762020689
    8      H      -0.3310848846    -2.7159641795    -1.7888897053
    9      H       0.3984273694    -4.1620644383    -1.1725394274
   10      H       2.1602937475    -2.9000095142    -0.0559353655
   11      H       2.1014545234    -2.4196299155    -1.7304550346
   12      H      -1.0878880292    -1.7471521476     1.9539514517
   13      H       0.3789338116     0.1766201123     1.2318529737
   14      H       1.1481337003    -1.3018045984     1.7381524273
   15      H       0.7752161119    -0.4238786348    -1.1382738595
   16      H      -0.1314451150    -3.6273492740     1.1001899251
   17      C       2.6587561283    -0.1616742558    -0.2495317019
   18      C       2.8830955206     1.0449463786    -1.0179154007
   19      C       3.7174905411    -0.5849070364     0.6347694148
   20      C       4.0347601060     1.7534927767    -0.9295615668
   21      H       2.1029188778     1.3824665525    -1.6779294937
   22      C       4.8811169489     0.0996555140     0.7473005435
   23      H       3.5784645382    -1.4735464513     1.2241255638
   24      C       5.0947449682     1.3109256442    -0.0405206231
   25      H       4.1788632199     2.6464927914    -1.5110873809
   26      H       5.6658841177    -0.2187860250     1.4045716118
   27      C       6.3287937066     2.0426909434     0.0696135792
   28      H       6.4194991922     2.9385360766    -0.5476213672
   29      O       7.2367408063     1.7077053009     0.7990386082
   30      C      -2.9179313506    -0.3104585867     1.1425463596
   31      C      -4.0100081943     0.4638484825     0.6700418802
   32      C      -1.9502553479    -0.7975196728     0.3131257594
   33      C      -5.0107582351     0.9666589482     1.5440384502
   34      C      -4.1072137925     0.7418091631    -0.7048354540
   35      C      -2.0683131473    -0.5055374080    -1.0776708884
   36      C      -6.0445532405     1.7042879624     1.0624341340
   37      H      -4.9377248844     0.7544404094     2.5967372912
   38      C      -5.1985665660     1.5147769410    -1.1813425615
   39      C      -3.1008419617     0.2306592508    -1.5630709006
   40      H      -1.3346987423    -0.8717714031    -1.7674265203
   41      C      -6.1409245303     1.9834192571    -0.3229485232
   42      H      -6.7976444221     2.0813588691     1.7316641600
   43      H      -5.2682910749     1.7241529627    -2.2349310849
   44      H      -3.1647151931     0.4333721720    -2.6185432006
   45      H      -6.9656155401     2.5686578555    -0.6895181838
   46      H      -2.8663327110    -0.5123998957     2.1991100952
 ----------------------------------------------------------------

    2    -958.6941077741      2.25E-11 Convergence criterion met
 Total energy in the final basis set = -958.6941077741

               CIS Excitation Energies
 ---------------------------------------------------

 Excited state   1: excitation energy (eV) =    2.5549
    Total energy for state   1:   -958.600216473322
    Multiplicity: Triplet
    Trans. Mom.:  0.0000 X   0.0000 Y   0.0000 Z
    Strength   :  0.0000
    D( 81) --> V(  4) amplitude = -0.2865
    D( 82) --> V(  1) amplitude = -0.8048
    D( 83) --> V(  1) amplitude =  0.3885

 Excited state   2: excitation energy (eV) =    2.7665
    Total energy for state   2:   -958.592441114467
    Multiplicity: Triplet
    Trans. Mom.:  0.0000 X   0.0000 Y   0.0000 Z
    Strength   :  0.0000
    D( 80) --> V(  5) amplitude = -0.3231
    D( 83) --> V(  3) amplitude =  0.3285
    D( 84) --> V(  2) amplitude = -0.8056

 ---------------------------------------------------

                    Orbital Energies (a.u.)
 --------------------------------------------------------------

 Alpha MOs
 -- Occupied --
-20.547 -11.322 -11.271 -11.258 -11.252 -11.247 -11.243 -11.243
-11.241 -11.241 -11.240 -11.239 -11.238 -11.236 -11.234 -11.234
-11.233 -11.233 -11.232 -11.230 -11.229 -11.228 -11.225 -11.225
 -1.377  -1.181  -1.161  -1.135  -1.108  -1.061  -1.048  -1.034
 -1.030  -0.999  -0.994  -0.976  -0.898  -0.864  -0.850  -0.839
 -0.829  -0.815  -0.809  -0.778  -0.756  -0.706  -0.705  -0.693
 -0.670  -0.664  -0.648  -0.639  -0.625  -0.619  -0.617  -0.605
 -0.601  -0.595  -0.588  -0.582  -0.576  -0.568  -0.554  -0.538
 -0.536  -0.529  -0.528  -0.520  -0.505  -0.500  -0.491  -0.480
 -0.478  -0.472  -0.452  -0.448  -0.438  -0.433  -0.416  -0.381
 -0.355  -0.317  -0.313  -0.289

          Ground-State Mulliken Net Atomic Charges

     Atom                 Charge (a.u.)
  ----------------------------------------
      1 C                    -0.201942
      2 C                    -0.228359
      3 C                    -0.207110
      4 C                    -0.168601
      5 C                    -0.185561
      6 C                    -0.164633
      7 H                     0.128079
      8 H                     0.109938
      9 H                     0.122369
     10 H                     0.109360
     11 H                     0.125539
     12 H                     0.132383
     13 H                     0.134990
     14 H                     0.113029
     15 H                     0.127464
     16 H                     0.112700
     17 C                     0.025093
     18 C                    -0.173906
     19 C                    -0.153661
     20 C                    -0.109137
     21 H                     0.152893
     22 C                    -0.086979
     23 H                     0.153119
     24 C                    -0.180031
     25 H                     0.165292
     26 H                     0.197154
     27 C                     0.396347
     28 H                     0.107122
     29 O                    -0.539599
     30 C                    -0.162224
     31 C                    -0.024881
     32 C                     0.020350
     33 C                    -0.127092
     34 C                    -0.040302
     35 C                    -0.156694
     36 C                    -0.157615
     37 H                     0.151985
     38 C                    -0.124493
     39 C                    -0.127749
     40 H                     0.140631
     41 C                    -0.159785
     42 H                     0.151452
     43 H                     0.151893
     44 H                     0.152641
     45 H                     0.151121
     46 H                     0.147411
  ----------------------------------------
  Sum of atomic charges =     0.000000

                    Cartesian Multipole Moments
 -----------------------------------------------------------------
    Charge (ESU x 10^10)
                 0.0000
    Dipole Moment (Debye)
         X      -4.0948      Y      -0.7650      Z      -1.5779
       Tot       4.4545
    Quadrupole Moments (Debye-Ang)
        XX    -179.5194     XY     -10.2337     YY    -137.3917
        XZ     -10.9268     YZ      -8.1744     ZZ    -134.0006

 Total job time:  2378.09s(wall), 2375.13s(cpu)
        *  Thank you very much for using Q-Chem.  Have a nice day.  *
