User input:
--------------------------------------------------------------
$comment
C1,3ea
$end
$molecule
0 1
C       1.1856830473    -1.9872964388    -0.0000381700
C      -0.9543994809    -1.2298920317    -1.2645195104
C      -0.9543318571    -1.2298381769     1.2645022133
C      -1.8029130639    -1.4652321655     0.0000195767
C       0.3101335603    -2.0952181072     1.2686922100
C       0.3100884771    -2.0952420184    -1.2687356828
H      -0.6961141698    -0.1791752297    -1.3492781765
H      -0.6960091697    -0.1791243293     1.3491889074
H      -2.0833434382    -2.5179786245     0.0000513142
H       0.0009924138    -3.1353419640     1.3616915305
H       0.0009658884    -3.1353732656    -1.3617115406
H      -1.5472898589    -1.4645474008    -2.1443640079
H      -1.5471820635    -1.4644305063     2.1443904523
H       0.9091462216    -1.8735317808     2.1468115864
H       0.9090646050    -1.8735552866    -2.1468801277
C      -3.0843267456    -0.6648645841     0.0000302675
C      -5.5232330839     0.8179436504     0.0000227448
C      -3.0855338133     0.7782795732     0.0000462227
C      -4.3721285832    -1.3255175648     0.0000078584
C      -5.5381439853    -0.6348857735     0.0000044571
C      -4.2318343277     1.500023513     0.0000431989
H      -2.1443666611     1.2987144846     0.0000616294
H      -4.3940925327    -2.4015241678    -0.0000054937
H      -6.4832007867    -1.1479489828    -0.0000111595
H      -4.2281334379     2.5720290709     0.0000558483
C      -6.7465057111     1.5756969775     0.0000206616
H      -7.6745779718     1.0009195305     0.0000052637
O      -6.7769844978     2.7871698963     0.0000348906
H       1.8159892561    -2.8708678956    -0.0000427247
C       2.1649350686    -0.8173120535    -0.0000529557
H       3.8491291029    -2.0982715478     0.0000968379
C       3.5039759207    -1.0781796214     0.0000299194
C       2.6702432553     1.5588111340    -0.0001453860
C       4.4822842365    -0.0491543237     0.0000316356
C       1.7613226833     0.5504041615    -0.0001430227
C       4.0632531717     1.2929631799    -0.0000573021
C       5.8741209645    -0.3331997348     0.0001195101
H       0.7199067478     0.8019298321    -0.0002124017
H       4.7118744145     3.3503999532    -0.0001253518
H       2.3357086823     2.5821218192    -0.0002155583
C       6.7867985390     0.6727770962     0.0001184057
H       6.1963834533    -1.3602069825     0.0001874893
H       7.8388715592     0.4483274443     0.0001856421
C       6.3629287097     2.0242650410     0.0000286895
H       7.0973903778     2.8101075052     0.0000286797
C       5.0383769095     2.3246842883    -0.0000568356
$end

$rem
MEM_TOTAL	20000
MEM_STATIC	5000
JOBTYPE    freq
SYMMETRY   FALSE
EXCHANGE     	HF
CORRELATION  	none  (built-in)
BASIS       	6-31g**
cis_state_deriv   1
cis_n_roots       3
cis_singlets      false
cis_triplets      true
max_scf_cycles=100
max_cis_cycles=100
$end

--------------------------------------------------------------

   16    -958.6943569156      3.20E-09 Convergence criterion met
 Total energy in the final basis set = -958.6943569156
 Frequency:        13.50                  19.44                  23.04
 Force Cnst:      0.0005                 0.0008                 0.0020
 Red. Mass:       4.3939                 3.7593                 6.2721
 IR Intens:        0.027                  0.956                  0.238
 Frequency:        40.62                  82.97                 112.57
 Force Cnst:      0.0058                 0.0152                 0.0432
 Red. Mass:       5.9747                 3.7576                 5.7852
 IR Intens:        1.118                  0.030                  0.746
 Frequency:       128.96                 165.13                 171.51
 Force Cnst:      0.0456                 0.0974                 0.0658
 Red. Mass:       4.6551                 6.0633                 3.7984
 IR Intens:        2.007                  0.337                  1.199
 Frequency:       193.11                 210.84                 215.91
 Force Cnst:      0.1109                 0.0823                 0.0949
 Red. Mass:       5.0471                 3.1408                 3.4552
 IR Intens:        4.452                  6.291                  0.698
 Frequency:       260.40                 272.21                 311.40
 Force Cnst:      0.1485                 0.0976                 0.1849
 Red. Mass:       3.7178                 2.2362                 3.2357
 IR Intens:        4.307                  0.019                  3.054
 Frequency:       314.80                 341.13                 388.24
 Force Cnst:      0.2722                 0.1601                 0.2722
 Red. Mass:       4.6623                 2.3355                 3.0646
 IR Intens:        0.365                  2.949                  0.777
 Frequency:       413.73                 417.75                 447.10
 Force Cnst:      0.3325                 0.4107                 0.3642
 Red. Mass:       3.2965                 3.9947                 3.0919
 IR Intens:        0.040                  2.246                  6.031
 Frequency:       462.11                 473.41                 487.11
 Force Cnst:      0.3918                 0.6227                 0.4362
 Red. Mass:       3.1144                 4.7155                 3.1198
 IR Intens:        8.735                  1.078                  2.262
 Frequency:       504.29                 524.56                 538.00
 Force Cnst:      0.3096                 0.6575                 0.4393
 Red. Mass:       2.0663                 4.0559                 2.5758
 IR Intens:        0.904                  7.018                 14.816
 Frequency:       562.94                 579.08                 602.82
 Force Cnst:      1.2723                 1.3262                 0.7176
 Red. Mass:       6.8143                 6.7124                 3.3517
 IR Intens:        0.146                 14.235                  0.559
 Frequency:       661.61                 664.68                 672.87
 Force Cnst:      1.4620                 1.5008                 1.1624
 Red. Mass:       5.6691                 5.7657                 4.3577
 IR Intens:        0.942                  5.237                  2.951
 Frequency:       691.75                 740.51                 767.00
 Force Cnst:      1.4940                 0.8653                 1.2085
 Red. Mass:       5.2989                 2.6783                 3.4867
 IR Intens:        0.597                  1.313                 10.376
 Frequency:       793.14                 820.40                 829.18
 Force Cnst:      0.4656                 0.5640                 1.4535
 Red. Mass:       1.2561                 1.4222                 3.5881
 IR Intens:        5.620                 46.236                 60.218
 Frequency:       840.02                 841.54                 846.32
 Force Cnst:      1.9731                 0.5862                 0.6086
 Red. Mass:       4.7460                 1.4049                 1.4421
 IR Intens:        1.746                 28.295                 10.938
 Frequency:       853.44                 855.00                 868.65
 Force Cnst:      1.4022                 1.2616                 1.7937
 Red. Mass:       3.2676                 2.9292                 4.0346
 IR Intens:       27.772                  1.443                  2.831
 Frequency:       915.49                 923.28                 958.76
 Force Cnst:      1.5995                 0.7021                 0.9851
 Red. Mass:       3.2392                 1.3978                 1.8189
 IR Intens:        0.404                 35.670                  9.700
 Frequency:       974.06                 985.25                1003.17
 Force Cnst:      1.0096                 1.9477                 2.0144
 Red. Mass:       1.8061                 3.4055                 3.3973
 IR Intens:        3.901                  5.864                 27.623
 Frequency:      1015.06                1025.34                1031.03
 Force Cnst:      0.8701                 0.9292                 0.8164
 Red. Mass:       1.4334                 1.5002                 1.3035
 IR Intens:        9.114                  2.389                  0.000
 Frequency:      1032.64                1043.09                1052.83
 Force Cnst:      2.6630                 0.8330                 1.0917
 Red. Mass:       4.2386                 1.2995                 1.6716
 IR Intens:        7.710                  0.083                  1.235
 Frequency:      1061.84                1088.48                1095.73
 Force Cnst:      1.9056                 0.9281                 1.9651
 Red. Mass:       2.8686                 1.3296                 2.7780
 IR Intens:       55.149                  1.583                  4.073
 Frequency:      1100.55                1104.86                1120.33
 Force Cnst:      2.1646                 0.9625                 0.9847
 Red. Mass:       3.0333                 1.3382                 1.3315
 IR Intens:       15.642                  1.351                  0.000
 Frequency:      1121.14                1158.13                1167.78
 Force Cnst:      1.4771                 1.8310                 1.8560
 Red. Mass:       1.9945                 2.3169                 2.3100
 IR Intens:        2.854                  0.050                  5.153
 Frequency:      1189.20                1198.15                1213.05
 Force Cnst:      1.2393                 1.4296                 1.4712
 Red. Mass:       1.4873                 1.6902                 1.6969
 IR Intens:        0.133                  5.534                  0.595
 Frequency:      1230.36                1244.72                1255.70
 Force Cnst:      1.2360                 1.5989                 1.3599
 Red. Mass:       1.3858                 1.7516                 1.4638
 IR Intens:        4.256                  1.473                  1.551
 Frequency:      1281.91                1287.60                1302.21
 Force Cnst:      1.1904                 1.4440                 1.5578
 Red. Mass:       1.2295                 1.4782                 1.5592
 IR Intens:        0.546                  3.975                  1.388
 Frequency:      1307.80                1308.21                1333.87
 Force Cnst:      1.3620                 3.1390                 3.0668
 Red. Mass:       1.3516                 3.1131                 2.9256
 IR Intens:        0.332                  1.712                  1.105
 Frequency:      1362.65                1386.39                1392.25
 Force Cnst:      1.6497                 1.7557                 2.0960
 Red. Mass:       1.5079                 1.5503                 1.8352
 IR Intens:        0.645                  0.075                  4.036
 Frequency:      1397.72                1415.92                1443.30
 Force Cnst:      4.0220                 1.6407                 2.4574
 Red. Mass:       3.4942                 1.3890                 2.0022
 IR Intens:       17.743                 14.003                 12.683
 Frequency:      1443.72                1460.88                1470.00
 Force Cnst:      1.5597                 1.8101                 1.9268
 Red. Mass:       1.2701                 1.4395                 1.5134
 IR Intens:        1.255                  0.292                  1.259
 Frequency:      1484.78                1488.49                1495.24
 Force Cnst:      2.7534                 2.5855                 1.8269
 Red. Mass:       2.1198                 1.9806                 1.3869
 IR Intens:        2.083                  7.007                  0.162
 Frequency:      1504.43                1508.80                1521.90
 Force Cnst:      3.1462                 1.8667                 2.0466
 Red. Mass:       2.3593                 1.3918                 1.4997
 IR Intens:        2.212                  0.184                 20.244
 Frequency:      1530.88                1537.65                1546.03
 Force Cnst:      2.3440                 1.9763                 2.2010
 Red. Mass:       1.6975                 1.4187                 1.5629
 IR Intens:        1.966                  7.437                 15.714
 Frequency:      1561.24                1576.53                1602.19
 Force Cnst:      2.3831                 3.3332                 3.0871
 Red. Mass:       1.6594                 2.2762                 2.0411
 IR Intens:        8.516                 11.829                  3.093
 Frequency:      1613.44                1623.14                1628.33
 Force Cnst:      1.6664                 1.8381                 1.7142
 Red. Mass:       1.0865                 1.1842                 1.0973
 IR Intens:        1.337                  6.373                  2.652
 Frequency:      1631.46                1633.32                1641.74
 Force Cnst:      4.7855                 2.8006                 1.8647
 Red. Mass:       3.0515                 1.7818                 1.1742
 IR Intens:        1.258                  0.900                  7.927
 Frequency:      1676.48                1712.31                1776.88
 Force Cnst:      4.8498                 9.7948                11.9937
 Red. Mass:       2.9287                 5.6700                 6.4475
 IR Intens:       18.347                116.506                  0.063
 Frequency:      1806.73                1845.47                3161.69
 Force Cnst:      9.7877                12.0206                 6.3663
 Red. Mass:       5.0891                 5.9905                 1.0809
 IR Intens:       10.233                  7.870                  0.355
 Frequency:      3165.64                3168.03                3178.52
 Force Cnst:      6.3127                 6.3564                 6.4631
 Red. Mass:       1.0692                 1.0749                 1.0858
 IR Intens:       12.483                 60.890                 91.887
 Frequency:      3196.50                3198.19                3207.97
 Force Cnst:      6.4104                 6.4294                 6.5776
 Red. Mass:       1.0648                 1.0669                 1.0848
 IR Intens:       45.326                 39.664                 41.190
 Frequency:      3223.29                3225.47                3238.37
 Force Cnst:      6.7084                 6.7171                 6.8038
 Red. Mass:       1.0959                 1.0958                 1.1012
 IR Intens:       71.637                 12.451                  0.425
 Frequency:      3243.16                3333.60                3336.30
 Force Cnst:      6.8201                 7.1283                 7.1431
 Red. Mass:       1.1005                 1.0887                 1.0892
 IR Intens:      137.288                  3.327                  7.688
 Frequency:      3339.93                3341.33                3344.20
 Force Cnst:      7.1672                 7.1474                 7.1847
 Red. Mass:       1.0905                 1.0866                 1.0904
 IR Intens:       10.000                  6.954                  1.831
 Frequency:      3354.75                3356.25                3362.69
 Force Cnst:      7.2203                 7.2771                 7.2953
 Red. Mass:       1.0889                 1.0965                 1.0950
 IR Intens:       21.488                 45.384                 17.829
 Frequency:      3369.53                3404.36                3408.19
 Force Cnst:      7.3526                 7.4603                 7.4716
 Red. Mass:       1.0991                 1.0925                 1.0917
 IR Intens:       40.666                  2.054                 24.414

 STANDARD THERMODYNAMIC QUANTITIES AT   298.15 K  AND     1.00 ATM

   This Molecule has  0 Imaginary Frequencies
   Zero point vibrational energy:      257.372 kcal/mol

   Atom    1 Element C  Has Mass   12.00000
   Atom    2 Element C  Has Mass   12.00000
   Atom    3 Element C  Has Mass   12.00000
   Atom    4 Element C  Has Mass   12.00000
   Atom    5 Element C  Has Mass   12.00000
   Atom    6 Element C  Has Mass   12.00000
   Atom    7 Element H  Has Mass    1.00783
   Atom    8 Element H  Has Mass    1.00783
   Atom    9 Element H  Has Mass    1.00783
   Atom   10 Element H  Has Mass    1.00783
   Atom   11 Element H  Has Mass    1.00783
   Atom   12 Element H  Has Mass    1.00783
   Atom   13 Element H  Has Mass    1.00783
   Atom   14 Element H  Has Mass    1.00783
   Atom   15 Element H  Has Mass    1.00783
   Atom   16 Element C  Has Mass   12.00000
   Atom   17 Element C  Has Mass   12.00000
   Atom   18 Element C  Has Mass   12.00000
   Atom   19 Element C  Has Mass   12.00000
   Atom   20 Element C  Has Mass   12.00000
   Atom   21 Element C  Has Mass   12.00000
   Atom   22 Element H  Has Mass    1.00783
   Atom   23 Element H  Has Mass    1.00783
   Atom   24 Element H  Has Mass    1.00783
   Atom   25 Element H  Has Mass    1.00783
   Atom   26 Element C  Has Mass   12.00000
   Atom   27 Element H  Has Mass    1.00783
   Atom   28 Element O  Has Mass   15.99491
   Atom   29 Element H  Has Mass    1.00783
   Atom   30 Element C  Has Mass   12.00000
   Atom   31 Element H  Has Mass    1.00783
   Atom   32 Element C  Has Mass   12.00000
   Atom   33 Element C  Has Mass   12.00000
   Atom   34 Element C  Has Mass   12.00000
   Atom   35 Element C  Has Mass   12.00000
   Atom   36 Element C  Has Mass   12.00000
   Atom   37 Element C  Has Mass   12.00000
   Atom   38 Element H  Has Mass    1.00783
   Atom   39 Element H  Has Mass    1.00783
   Atom   40 Element H  Has Mass    1.00783
   Atom   41 Element C  Has Mass   12.00000
   Atom   42 Element H  Has Mass    1.00783
   Atom   43 Element H  Has Mass    1.00783
   Atom   44 Element C  Has Mass   12.00000
   Atom   45 Element H  Has Mass    1.00783
   Atom   46 Element C  Has Mass   12.00000
   Molecular Mass:   314.167170 amu
   Principal axes and moments of inertia in atomic units:
                             1           2           3
    Eigenvalues --     2985.82219 20523.79775 22774.17624
          X               0.99998     0.00548     0.00000
          Y              -0.00548     0.99998     0.00000
          Z               0.00000     0.00000     1.00000
   Rotational Symmetry Number is   1
   The Molecule is an Asymmetric Top
   Translational Enthalpy:        0.889 kcal/mol
   Rotational Enthalpy:           0.889 kcal/mol
   Vibrational Enthalpy:        267.421 kcal/mol
   gas constant (RT):             0.592 kcal/mol
   Translational Entropy:        43.130  cal/mol.K
   Rotational Entropy:           35.588  cal/mol.K
   Vibrational Entropy:          68.922  cal/mol.K

   Total Enthalpy:              269.791 kcal/mol
   Total Entropy:               147.641  cal/mol.K

 Total job time:  32249.11s(wall), 29962.55s(cpu)
        *  Thank you very much for using Q-Chem.  Have a nice day.  *

User input:
--------------------------------------------------------------
$molecule
read
$end

$rem
scf_convergence=10
cis_convergence=10
thresh=12
max_scf_cycles=100
max_cis_cycles=100
MEM_TOTAL	20000
MEM_STATIC	5000
JOBTYPE    force
SYMMETRY   FALSE
EXCHANGE     	HF
CORRELATION  	none  (built-in)
BASIS       	6-31g**
cis_state_deriv   1
cis_n_roots       3
cis_singlets      false
cis_triplets      true
scf_guess read
$end

--------------------------------------------------------------

    5    -958.6943569081      6.75E-11 Convergence criterion met
 Total energy in the final basis set = -958.6943569081
 Total job time:  5719.99s(wall), 5706.54s(cpu)

User input:
--------------------------------------------------------------
$molecule
read
$end

$rem
scf_convergence=10
cis_convergence=10
thresh=12
max_scf_cycles=100
max_cis_cycles=100
MEM_TOTAL	20000
MEM_STATIC	5000
JOBTYPE    Force
SYMMETRY   FALSE
EXCHANGE     	HF
CORRELATION  	none  (built-in)
BASIS       	6-31g**
cis_state_deriv   2
cis_n_roots       3
cis_singlets      false
cis_triplets      true
scf_guess read
$end

--------------------------------------------------------------

    2    -958.6943569080      2.19E-11 Convergence criterion met
 Total energy in the final basis set = -958.6943569080
        *  Thank you very much for using Q-Chem.  Have a nice day.  *

             Standard Nuclear Orientation (Angstroms)
    I     Atom           X                Y                Z
 ----------------------------------------------------------------
    1      C       1.1856830473    -1.9872964388    -0.0000381700
    2      C      -0.9543994809    -1.2298920317    -1.2645195104
    3      C      -0.9543318571    -1.2298381769     1.2645022133
    4      C      -1.8029130639    -1.4652321655     0.0000195767
    5      C       0.3101335603    -2.0952181072     1.2686922100
    6      C       0.3100884771    -2.0952420184    -1.2687356828
    7      H      -0.6961141698    -0.1791752297    -1.3492781765
    8      H      -0.6960091697    -0.1791243293     1.3491889074
    9      H      -2.0833434382    -2.5179786245     0.0000513142
   10      H       0.0009924138    -3.1353419640     1.3616915305
   11      H       0.0009658884    -3.1353732656    -1.3617115406
   12      H      -1.5472898589    -1.4645474008    -2.1443640079
   13      H      -1.5471820635    -1.4644305063     2.1443904523
   14      H       0.9091462216    -1.8735317808     2.1468115864
   15      H       0.9090646050    -1.8735552866    -2.1468801277
   16      C      -3.0843267456    -0.6648645841     0.0000302675
   17      C      -5.5232330839     0.8179436504     0.0000227448
   18      C      -3.0855338133     0.7782795732     0.0000462227
   19      C      -4.3721285832    -1.3255175648     0.0000078584
   20      C      -5.5381439853    -0.6348857735     0.0000044571
   21      C      -4.2318343277     1.5000235130     0.0000431989
   22      H      -2.1443666611     1.2987144846     0.0000616294
   23      H      -4.3940925327    -2.4015241678    -0.0000054937
   24      H      -6.4832007867    -1.1479489828    -0.0000111595
   25      H      -4.2281334379     2.5720290709     0.0000558483
   26      C      -6.7465057111     1.5756969775     0.0000206616
   27      H      -7.6745779718     1.0009195305     0.0000052637
   28      O      -6.7769844978     2.7871698963     0.0000348906
   29      H       1.8159892561    -2.8708678956    -0.0000427247
   30      C       2.1649350686    -0.8173120535    -0.0000529557
   31      H       3.8491291029    -2.0982715478     0.0000968379
   32      C       3.5039759207    -1.0781796214     0.0000299194
   33      C       2.6702432553     1.5588111340    -0.0001453860
   34      C       4.4822842365    -0.0491543237     0.0000316356
   35      C       1.7613226833     0.5504041615    -0.0001430227
   36      C       4.0632531717     1.2929631799    -0.0000573021
   37      C       5.8741209645    -0.3331997348     0.0001195101
   38      H       0.7199067478     0.8019298321    -0.0002124017
   39      H       4.7118744145     3.3503999532    -0.0001253518
   40      H       2.3357086823     2.5821218192    -0.0002155583
   41      C       6.7867985390     0.6727770962     0.0001184057
   42      H       6.1963834533    -1.3602069825     0.0001874893
   43      H       7.8388715592     0.4483274443     0.0001856421
   44      C       6.3629287097     2.0242650410     0.0000286895
   45      H       7.0973903778     2.8101075052     0.0000286797
   46      C       5.0383769095     2.3246842883    -0.0000568356
 ----------------------------------------------------------------

    5    -958.6943569079      1.74E-11 Convergence criterion met
 Total energy in the final basis set = -958.6943569079

               CIS Excitation Energies
 ---------------------------------------------------

 Excited state   1: excitation energy (eV) =    2.5573
    Total energy for state   1:   -958.600378822329
    Multiplicity: Triplet
    Trans. Mom.:  0.0000 X   0.0000 Y   0.0000 Z
    Strength   :  0.0000
    D( 81) --> V(  4) amplitude = -0.2882
    D( 82) --> V(  1) amplitude = -0.8960

 Excited state   2: excitation energy (eV) =    2.7698
    Total energy for state   2:   -958.592567723039
    Multiplicity: Triplet
    Trans. Mom.:  0.0000 X   0.0000 Y   0.0000 Z
    Strength   :  0.0000
    D( 80) --> V(  5) amplitude = -0.3232
    D( 83) --> V(  3) amplitude =  0.3680
    D( 84) --> V(  2) amplitude = -0.8067

 ---------------------------------------------------

                    Orbital Energies (a.u.)
 --------------------------------------------------------------

 Alpha MOs
 -- Occupied --
-20.548 -11.322 -11.273 -11.260 -11.253 -11.248 -11.244 -11.244
-11.242 -11.240 -11.240 -11.238 -11.237 -11.235 -11.233 -11.233
-11.232 -11.232 -11.231 -11.229 -11.228 -11.228 -11.226 -11.226
 -1.378  -1.180  -1.162  -1.135  -1.108  -1.063  -1.046  -1.035
 -1.016  -1.014  -0.994  -0.974  -0.901  -0.852  -0.847  -0.847
 -0.835  -0.814  -0.808  -0.779  -0.756  -0.706  -0.703  -0.695
 -0.673  -0.663  -0.648  -0.640  -0.623  -0.615  -0.615  -0.609
 -0.602  -0.599  -0.585  -0.581  -0.576  -0.567  -0.556  -0.539
 -0.533  -0.532  -0.527  -0.521  -0.503  -0.497  -0.496  -0.482
 -0.476  -0.471  -0.450  -0.450  -0.438  -0.431  -0.417  -0.380
 -0.356  -0.317  -0.313  -0.288

          Ground-State Mulliken Net Atomic Charges

     Atom                 Charge (a.u.)
  ----------------------------------------
      1 C                    -0.162690
      2 C                    -0.206071
      3 C                    -0.206073
      4 C                    -0.162759
      5 C                    -0.211687
      6 C                    -0.211690
      7 H                     0.113970
      8 H                     0.113971
      9 H                     0.123908
     10 H                     0.112312
     11 H                     0.112313
     12 H                     0.126971
     13 H                     0.126972
     14 H                     0.130409
     15 H                     0.130410
     16 C                     0.027999
     17 C                    -0.179926
     18 C                    -0.154039
     19 C                    -0.174107
     20 C                    -0.108919
     21 C                    -0.087108
     22 H                     0.150468
     23 H                     0.151271
     24 H                     0.165378
     25 H                     0.197942
     26 C                     0.396409
     27 H                     0.107255
     28 O                    -0.539148
     29 H                     0.129975
     30 C                     0.021374
     31 H                     0.146525
     32 C                    -0.164774
     33 C                    -0.127053
     34 C                    -0.024590
     35 C                    -0.152237
     36 C                    -0.040639
     37 C                    -0.127499
     38 H                     0.137095
     39 H                     0.152640
     40 H                     0.153766
     41 C                    -0.157453
     42 H                     0.151185
     43 H                     0.151015
     44 C                    -0.160086
     45 H                     0.151115
     46 C                    -0.124099
  ----------------------------------------
  Sum of atomic charges =     0.000000

                    Cartesian Multipole Moments
 -----------------------------------------------------------------
    Charge (ESU x 10^10)
                 0.0000
    Dipole Moment (Debye)
         X       2.2654      Y      -3.9626      Z       0.0000
       Tot       4.5644
    Quadrupole Moments (Debye-Ang)
        XX    -149.5166     XY      25.7085     YY    -140.8278
        XZ       0.0010     YZ      -0.0007     ZZ    -148.7844

 Total job time:  2285.78s(wall), 2280.59s(cpu)
        *  Thank you very much for using Q-Chem.  Have a nice day.  *
