User input:
--------------------------------------------------------------
$comment
C1,3ea
$end
$molecule
0 1
C       2.4414638038    -0.6700274012     0.0000000000
H       2.6051050674     1.4454449961     0.0000000000
C       3.1317260103     0.5064715538     0.0000000000
C       4.5408556143    -1.8840424156     0.0000000000
C       4.5498522270     0.5427727379     0.0000000000
C       3.1826193748    -1.8827515804     0.0000000000
C       5.2687314748    -0.6677358880     0.0000000000
C       5.2710472829     1.7679045922     0.0000000000
H       2.6509603480    -2.8186569650     0.0000000000
H       7.2335590931    -1.5585430960     0.0000000000
H       5.0804260711    -2.8155606986     0.0000000000
C       6.6285792931     1.7744720714     0.0000000000
H       4.7228138412     2.6942616148     0.0000000000
H       7.1649027409     2.7070048312     0.0000000000
C       7.3507875318     0.5551331952     0.0000000000
H       8.4262196662     0.5760827933     0.0000000000
C       6.6888916780    -0.6300712230     0.0000000000
C       0.9211716591    -0.7197114897     0.0000000000
C      -1.2192137786    -0.1897912420     1.2628813455
C      -1.2192137786    -0.1897912420    -1.2628813455
C      -1.8385322052     0.4395702053     0.0000000000
C       0.3084084636    -0.0881763953    -1.2609806691
C       0.3084084636    -0.0881763953     1.2609806691
H      -1.5091817693    -1.2369123717     1.3276495647
H      -1.5091817693    -1.2369123717    -1.3276495647
H      -1.5597482870     1.4926306348     0.0000000000
H       0.5997731033     0.9585038865    -1.3212642018
H       0.5997731033     0.9585038865     1.3212642018
H       0.6364636530    -1.7708371254     0.0000000000
H      -1.6210573062     0.2966176943     2.1473467220
H      -1.6210573062     0.2966176943    -2.1473467220
H       0.7122749538    -0.5716882400    -2.1459328582
H       0.7122749538    -0.5716882400     2.1459328582
C      -3.3481338737     0.3785681065     0.0000000000
C      -6.2007515076     0.2943433617     0.0000000000
C      -4.0622361175    -0.8761663678     0.0000000000
C      -4.1405718712     1.5892009765     0.0000000000
C      -5.4956022011     1.5650684739     0.0000000000
C      -5.4153645947    -0.9366384458     0.0000000000
H      -3.5001669305    -1.7930196187     0.0000000000
H      -3.6278638848     2.5354839871     0.0000000000
H      -6.0636932764     2.4781028221     0.0000000000
H      -5.9420593197    -1.8703852603     0.0000000000
C      -7.6387069664     0.2404591758     0.0000000000
H      -8.1611925695     1.1989695168     0.0000000000
O      -8.2643300090    -0.7974158195     0.0000000000
$end

$rem
MEM_TOTAL	20000
MEM_STATIC	5000
JOBTYPE    freq
SYMMETRY   FALSE
EXCHANGE     	HF
CORRELATION  	none  (built-in)
BASIS       	6-31g**
cis_state_deriv   1
cis_n_roots       3
cis_singlets      false
cis_triplets      true
max_scf_cycles=100
max_cis_cycles=100
$end

--------------------------------------------------------------

   15    -958.7019792646      9.21E-09 Convergence criterion met
 Total energy in the final basis set = -958.7019792646
 Frequency:        15.57                  24.28                  25.37
 Force Cnst:      0.0005                 0.0019                 0.0024
 Red. Mass:       3.7767                 5.4623                 6.3782
 IR Intens:        0.666                  0.409                  0.419
 Frequency:        36.55                  61.02                  95.22
 Force Cnst:      0.0028                 0.0098                 0.0316
 Red. Mass:       3.5618                 4.4552                 5.9199
 IR Intens:        0.497                  1.097                  0.570
 Frequency:       120.80                 173.05                 181.75
 Force Cnst:      0.0437                 0.1094                 0.0879
 Red. Mass:       5.0876                 6.2031                 4.5187
 IR Intens:        0.494                  0.253                  2.918
 Frequency:       187.71                 200.35                 213.28
 Force Cnst:      0.1060                 0.0858                 0.0834
 Red. Mass:       5.1070                 3.6283                 3.1127
 IR Intens:        2.657                  0.619                  5.676
 Frequency:       245.43                 257.11                 309.98
 Force Cnst:      0.0648                 0.1534                 0.1925
 Red. Mass:       1.8266                 3.9396                 3.4011
 IR Intens:        0.172                  6.969                  2.418
 Frequency:       328.66                 340.71                 371.93
 Force Cnst:      0.1680                 0.3605                 0.3113
 Red. Mass:       2.6396                 5.2705                 3.8197
 IR Intens:        1.433                  0.593                  1.269
 Frequency:       414.02                 416.88                 449.32
 Force Cnst:      0.3335                 0.2974                 0.3822
 Red. Mass:       3.3019                 2.9048                 3.2128
 IR Intens:        0.016                  0.656                  2.103
 Frequency:       452.37                 479.05                 502.26
 Force Cnst:      0.3515                 0.5001                 0.4624
 Red. Mass:       2.9152                 3.6987                 3.1111
 IR Intens:       11.821                  1.713                  5.695
 Frequency:       512.20                 524.80                 535.48
 Force Cnst:      0.3700                 0.5287                 0.4347
 Red. Mass:       2.3937                 3.2580                 2.5733
 IR Intens:        2.989                  2.192                 13.855
 Frequency:       563.15                 572.02                 594.03
 Force Cnst:      1.0892                 1.3118                 0.7264
 Red. Mass:       5.8292                 6.8047                 3.4940
 IR Intens:        0.468                 13.389                  0.318
 Frequency:       600.04                 669.26                 673.92
 Force Cnst:      1.1621                 1.6438                 1.1673
 Red. Mass:       5.4784                 6.2290                 4.3622
 IR Intens:        3.129                  1.550                  3.330
 Frequency:       682.94                 732.20                 783.98
 Force Cnst:      1.7870                 0.9048                 1.3262
 Red. Mass:       6.5031                 2.8646                 3.6621
 IR Intens:        5.672                  0.716                  1.750
 Frequency:       793.15                 822.27                 827.25
 Force Cnst:      0.4669                 0.5639                 1.4262
 Red. Mass:       1.2596                 1.4156                 3.5372
 IR Intens:        6.431                 44.885                 74.197
 Frequency:       839.94                 841.15                 846.33
 Force Cnst:      2.0373                 0.5519                 1.5666
 Red. Mass:       4.9012                 1.3240                 3.7121
 IR Intens:        4.540                 38.570                 16.852
 Frequency:       854.93                 856.44                 877.44
 Force Cnst:      1.3103                 0.6324                 1.4728
 Red. Mass:       3.0427                 1.4633                 3.2469
 IR Intens:        1.310                  0.889                  5.277
 Frequency:       923.74                 950.93                 963.14
 Force Cnst:      0.7045                 1.4556                 0.8028
 Red. Mass:       1.4014                 2.7321                 1.4688
 IR Intens:       37.088                  2.826                 15.343
 Frequency:       977.87                 982.50                1003.35
 Force Cnst:      0.8126                 2.1787                 2.0827
 Red. Mass:       1.4423                 3.8308                 3.5114
 IR Intens:        0.001                  0.930                 28.302
 Frequency:      1016.27                1029.84                1037.52
 Force Cnst:      0.9430                 0.8222                 2.5492
 Red. Mass:       1.5498                 1.3158                 4.0194
 IR Intens:        6.201                  0.693                 10.116
 Frequency:      1042.80                1047.71                1052.92
 Force Cnst:      0.9772                 1.0111                 1.0926
 Red. Mass:       1.5252                 1.5633                 1.6728
 IR Intens:        1.198                  0.380                  1.155
 Frequency:      1069.58                1087.94                1090.50
 Force Cnst:      1.9454                 0.9293                 2.1728
 Red. Mass:       2.8862                 1.3327                 3.1011
 IR Intens:       39.712                  1.297                  7.249
 Frequency:      1102.28                1105.49                1107.70
 Force Cnst:      0.9697                 1.7078                 1.5665
 Red. Mass:       1.3545                 2.3718                 2.1668
 IR Intens:        1.605                 20.212                 10.659
 Frequency:      1119.76                1146.89                1171.78
 Force Cnst:      0.9830                 1.0139                 2.1197
 Red. Mass:       1.3306                 1.3083                 2.6202
 IR Intens:        0.001                  0.088                  0.038
 Frequency:      1176.31                1199.32                1229.23
 Force Cnst:      1.8957                 1.3600                 1.2807
 Red. Mass:       2.3253                 1.6048                 1.4386
 IR Intens:        5.319                  6.635                  3.186
 Frequency:      1236.40                1239.05                1240.82
 Force Cnst:      1.6659                 1.6581                 1.7181
 Red. Mass:       1.8496                 1.8330                 1.8940
 IR Intens:        1.348                  0.025                  2.107
 Frequency:      1274.11                1283.81                1299.61
 Force Cnst:      1.5972                 1.1556                 1.3821
 Red. Mass:       1.6699                 1.1900                 1.3889
 IR Intens:        3.443                  0.043                  0.225
 Frequency:      1307.21                1334.03                1346.28
 Force Cnst:      3.1500                 3.1940                 1.4004
 Red. Mass:       3.1288                 3.0461                 1.3114
 IR Intens:        1.671                  0.427                  1.608
 Frequency:      1360.87                1379.04                1390.22
 Force Cnst:      1.6977                 1.8383                 1.8110
 Red. Mass:       1.5559                 1.6406                 1.5904
 IR Intens:        2.193                  0.552                  3.553
 Frequency:      1391.99                1404.36                1438.80
 Force Cnst:      2.1718                 2.7611                 1.6977
 Red. Mass:       1.9023                 2.3762                 1.3919
 IR Intens:        4.070                 16.773                  1.547
 Frequency:      1450.06                1450.67                1466.11
 Force Cnst:      1.8844                 1.5272                 1.6764
 Red. Mass:       1.5211                 1.2317                 1.3237
 IR Intens:        2.474                  0.022                  7.428
 Frequency:      1482.50                1487.83                1491.42
 Force Cnst:      3.0039                 1.8407                 8.2474
 Red. Mass:       2.3198                 1.4113                 6.2931
 IR Intens:        3.554                  3.570                  0.968
 Frequency:      1503.74                1508.32                1509.36
 Force Cnst:      1.8783                 2.1532                 1.8996
 Red. Mass:       1.4099                 1.6063                 1.4152
 IR Intens:        0.001                  2.792                  0.006
 Frequency:      1535.34                1537.78                1550.52
 Force Cnst:      2.4487                 1.9756                 2.2703
 Red. Mass:       1.7631                 1.4179                 1.6028
 IR Intens:        4.504                  6.086                  0.992
 Frequency:      1561.56                1576.33                1598.47
 Force Cnst:      2.3809                 3.3836                 3.3576
 Red. Mass:       1.6572                 2.3112                 2.2304
 IR Intens:       10.143                  8.107                  1.340
 Frequency:      1612.15                1620.61                1623.26
 Force Cnst:      1.6648                 1.7030                 1.7221
 Red. Mass:       1.0872                 1.1006                 1.1092
 IR Intens:        0.002                  1.640                  9.173
 Frequency:      1631.23                1632.27                1635.96
 Force Cnst:      3.3019                 3.7681                 1.9655
 Red. Mass:       2.1061                 2.4004                 1.2465
 IR Intens:        0.656                  1.251                  0.004
 Frequency:      1676.55                1712.77                1777.25
 Force Cnst:      5.1272                 9.7978                12.0124
 Red. Mass:       3.0960                 5.6687                 6.4548
 IR Intens:       14.144                122.907                  0.665
 Frequency:      1807.86                1845.13                3162.22
 Force Cnst:      9.7838                11.9463                 6.3778
 Red. Mass:       5.0807                 5.9557                 1.0825
 IR Intens:       14.688                 10.757                  7.994
 Frequency:      3167.65                3175.01                3177.75
 Force Cnst:      6.4123                 6.3213                 6.3386
 Red. Mass:       1.0846                 1.0643                 1.0654
 IR Intens:        0.437                 15.458                 15.737
 Frequency:      3178.21                3181.41                3183.95
 Force Cnst:      6.4600                 6.3589                 6.3713
 Red. Mass:       1.0855                 1.0663                 1.0667
 IR Intens:       92.183                 65.991                 47.693
 Frequency:      3219.37                3223.27                3225.41
 Force Cnst:      6.6982                 6.7185                 6.7729
 Red. Mass:       1.0969                 1.0976                 1.1050
 IR Intens:       95.635                  3.337                  5.068
 Frequency:      3232.53                3333.22                3334.57
 Force Cnst:      6.8014                 7.1183                 7.1217
 Red. Mass:       1.1047                 1.0874                 1.0871
 IR Intens:       99.858                  4.733                  2.437
 Frequency:      3339.29                3341.13                3343.21
 Force Cnst:      7.1627                 7.1467                 7.1807
 Red. Mass:       1.0902                 1.0866                 1.0904
 IR Intens:        9.397                  7.036                  8.548
 Frequency:      3354.93                3355.71                3356.62
 Force Cnst:      7.2734                 7.2252                 7.2810
 Red. Mass:       1.0968                 1.0890                 1.0968
 IR Intens:        9.454                 14.420                 69.776
 Frequency:      3362.60                3369.36                3404.03
 Force Cnst:      7.2947                 7.3517                 7.4592
 Red. Mass:       1.0950                 1.0991                 1.0926
 IR Intens:       16.120                 37.400                  1.461

 STANDARD THERMODYNAMIC QUANTITIES AT   298.15 K  AND     1.00 ATM

   This Molecule has  0 Imaginary Frequencies
   Zero point vibrational energy:      257.000 kcal/mol

   Atom    1 Element C  Has Mass   12.00000
   Atom    2 Element H  Has Mass    1.00783
   Atom    3 Element C  Has Mass   12.00000
   Atom    4 Element C  Has Mass   12.00000
   Atom    5 Element C  Has Mass   12.00000
   Atom    6 Element C  Has Mass   12.00000
   Atom    7 Element C  Has Mass   12.00000
   Atom    8 Element C  Has Mass   12.00000
   Atom    9 Element H  Has Mass    1.00783
   Atom   10 Element H  Has Mass    1.00783
   Atom   11 Element H  Has Mass    1.00783
   Atom   12 Element C  Has Mass   12.00000
   Atom   13 Element H  Has Mass    1.00783
   Atom   14 Element H  Has Mass    1.00783
   Atom   15 Element C  Has Mass   12.00000
   Atom   16 Element H  Has Mass    1.00783
   Atom   17 Element C  Has Mass   12.00000
   Atom   18 Element C  Has Mass   12.00000
   Atom   19 Element C  Has Mass   12.00000
   Atom   20 Element C  Has Mass   12.00000
   Atom   21 Element C  Has Mass   12.00000
   Atom   22 Element C  Has Mass   12.00000
   Atom   23 Element C  Has Mass   12.00000
   Atom   24 Element H  Has Mass    1.00783
   Atom   25 Element H  Has Mass    1.00783
   Atom   26 Element H  Has Mass    1.00783
   Atom   27 Element H  Has Mass    1.00783
   Atom   28 Element H  Has Mass    1.00783
   Atom   29 Element H  Has Mass    1.00783
   Atom   30 Element H  Has Mass    1.00783
   Atom   31 Element H  Has Mass    1.00783
   Atom   32 Element H  Has Mass    1.00783
   Atom   33 Element H  Has Mass    1.00783
   Atom   34 Element C  Has Mass   12.00000
   Atom   35 Element C  Has Mass   12.00000
   Atom   36 Element C  Has Mass   12.00000
   Atom   37 Element C  Has Mass   12.00000
   Atom   38 Element C  Has Mass   12.00000
   Atom   39 Element C  Has Mass   12.00000
   Atom   40 Element H  Has Mass    1.00783
   Atom   41 Element H  Has Mass    1.00783
   Atom   42 Element H  Has Mass    1.00783
   Atom   43 Element H  Has Mass    1.00783
   Atom   44 Element C  Has Mass   12.00000
   Atom   45 Element H  Has Mass    1.00783
   Atom   46 Element O  Has Mass   15.99491
   Molecular Mass:   314.167170 amu
   Principal axes and moments of inertia in atomic units:
                             1           2           3
    Eigenvalues --     1637.69097 26073.57044 26982.14354
          X               1.00000    -0.00134     0.00000
          Y               0.00134     1.00000     0.00000
          Z               0.00000     0.00000     1.00000
   Rotational Symmetry Number is   1
   The Molecule is an Asymmetric Top
   Translational Enthalpy:        0.889 kcal/mol
   Rotational Enthalpy:           0.889 kcal/mol
   Vibrational Enthalpy:        267.135 kcal/mol
   gas constant (RT):             0.592 kcal/mol
   Translational Entropy:        43.130  cal/mol.K
   Rotational Entropy:           35.398  cal/mol.K
   Vibrational Entropy:          69.498  cal/mol.K

   Total Enthalpy:              269.505 kcal/mol
   Total Entropy:               148.026  cal/mol.K

 Total job time:  31012.08s(wall), 28645.99s(cpu)
        *  Thank you very much for using Q-Chem.  Have a nice day.  *

User input:
--------------------------------------------------------------
$molecule
read
$end

$rem
scf_convergence=10
cis_convergence=10
thresh=12
max_scf_cycles=100
max_cis_cycles=100
MEM_TOTAL	20000
MEM_STATIC	5000
JOBTYPE    force
SYMMETRY   FALSE
EXCHANGE     	HF
CORRELATION  	none  (built-in)
BASIS       	6-31g**
cis_state_deriv   1
cis_n_roots       3
cis_singlets      false
cis_triplets      true
scf_guess read
$end

--------------------------------------------------------------

    6    -958.7019792479      7.38E-11 Convergence criterion met
 Total energy in the final basis set = -958.7019792479
 Total job time:  4316.41s(wall), 4297.04s(cpu)

User input:
--------------------------------------------------------------
$molecule
read
$end

$rem
scf_convergence=10
cis_convergence=10
thresh=12
max_scf_cycles=100
max_cis_cycles=100
MEM_TOTAL	20000
MEM_STATIC	5000
JOBTYPE    Force
SYMMETRY   FALSE
EXCHANGE     	HF
CORRELATION  	none  (built-in)
BASIS       	6-31g**
cis_state_deriv   2
cis_n_roots       3
cis_singlets      false
cis_triplets      true
scf_guess read
$end

--------------------------------------------------------------

    2    -958.7019792483      2.86E-11 Convergence criterion met
 Total energy in the final basis set = -958.7019792483
        *  Thank you very much for using Q-Chem.  Have a nice day.  *

             Standard Nuclear Orientation (Angstroms)
    I     Atom           X                Y                Z
 ----------------------------------------------------------------
    1      C       2.4414638038    -0.6700274012     0.0000000000
    2      H       2.6051050674     1.4454449961     0.0000000000
    3      C       3.1317260103     0.5064715538     0.0000000000
    4      C       4.5408556143    -1.8840424156     0.0000000000
    5      C       4.5498522270     0.5427727379     0.0000000000
    6      C       3.1826193748    -1.8827515804     0.0000000000
    7      C       5.2687314748    -0.6677358880     0.0000000000
    8      C       5.2710472829     1.7679045922     0.0000000000
    9      H       2.6509603480    -2.8186569650     0.0000000000
   10      H       7.2335590931    -1.5585430960     0.0000000000
   11      H       5.0804260711    -2.8155606986     0.0000000000
   12      C       6.6285792931     1.7744720714     0.0000000000
   13      H       4.7228138412     2.6942616148     0.0000000000
   14      H       7.1649027409     2.7070048312     0.0000000000
   15      C       7.3507875318     0.5551331952     0.0000000000
   16      H       8.4262196662     0.5760827933     0.0000000000
   17      C       6.6888916780    -0.6300712230     0.0000000000
   18      C       0.9211716591    -0.7197114897     0.0000000000
   19      C      -1.2192137786    -0.1897912420     1.2628813455
   20      C      -1.2192137786    -0.1897912420    -1.2628813455
   21      C      -1.8385322052     0.4395702053     0.0000000000
   22      C       0.3084084636    -0.0881763953    -1.2609806691
   23      C       0.3084084636    -0.0881763953     1.2609806691
   24      H      -1.5091817693    -1.2369123717     1.3276495647
   25      H      -1.5091817693    -1.2369123717    -1.3276495647
   26      H      -1.5597482870     1.4926306348     0.0000000000
   27      H       0.5997731033     0.9585038865    -1.3212642018
   28      H       0.5997731033     0.9585038865     1.3212642018
   29      H       0.6364636530    -1.7708371254     0.0000000000
   30      H      -1.6210573062     0.2966176943     2.1473467220
   31      H      -1.6210573062     0.2966176943    -2.1473467220
   32      H       0.7122749538    -0.5716882400    -2.1459328582
   33      H       0.7122749538    -0.5716882400     2.1459328582
   34      C      -3.3481338737     0.3785681065     0.0000000000
   35      C      -6.2007515076     0.2943433617     0.0000000000
   36      C      -4.0622361175    -0.8761663678     0.0000000000
   37      C      -4.1405718712     1.5892009765     0.0000000000
   38      C      -5.4956022011     1.5650684739     0.0000000000
   39      C      -5.4153645947    -0.9366384458     0.0000000000
   40      H      -3.5001669305    -1.7930196187     0.0000000000
   41      H      -3.6278638848     2.5354839871     0.0000000000
   42      H      -6.0636932764     2.4781028221     0.0000000000
   43      H      -5.9420593197    -1.8703852603     0.0000000000
   44      C      -7.6387069664     0.2404591758     0.0000000000
   45      H      -8.1611925695     1.1989695168     0.0000000000
   46      O      -8.2643300090    -0.7974158195     0.0000000000
 ----------------------------------------------------------------

    2    -958.7019792483      1.92E-11 Convergence criterion met
 Total energy in the final basis set = -958.7019792483

               CIS Excitation Energies
 ---------------------------------------------------

 Excited state   1: excitation energy (eV) =    2.5565
    Total energy for state   1:   -958.608030580105
    Multiplicity: Triplet
    Trans. Mom.:  0.0000 X   0.0000 Y   0.0000 Z
    Strength   :  0.0000
    D( 81) --> V(  4) amplitude = -0.2876
    D( 82) --> V(  1) amplitude = -0.8679
    D( 83) --> V(  1) amplitude = -0.2170

 Excited state   2: excitation energy (eV) =    2.7404
    Total energy for state   2:   -958.601270910027
    Multiplicity: Triplet
    Trans. Mom.:  0.0000 X   0.0000 Y   0.0000 Z
    Strength   :  0.0000
    D( 80) --> V(  5) amplitude = -0.3249
    D( 83) --> V(  3) amplitude = -0.3495
    D( 84) --> V(  2) amplitude =  0.8155

 ---------------------------------------------------

                    Orbital Energies (a.u.)
 --------------------------------------------------------------

 Alpha MOs
 -- Occupied --
-20.548 -11.322 -11.272 -11.260 -11.253 -11.248 -11.244 -11.244
-11.242 -11.240 -11.239 -11.238 -11.236 -11.234 -11.233 -11.233
-11.232 -11.231 -11.231 -11.229 -11.229 -11.229 -11.225 -11.225
 -1.378  -1.180  -1.162  -1.137  -1.110  -1.064  -1.045  -1.035
 -1.016  -1.016  -0.992  -0.972  -0.900  -0.857  -0.847  -0.841
 -0.833  -0.816  -0.803  -0.779  -0.765  -0.705  -0.702  -0.698
 -0.678  -0.663  -0.649  -0.629  -0.620  -0.619  -0.614  -0.613
 -0.602  -0.593  -0.588  -0.578  -0.575  -0.565  -0.558  -0.539
 -0.539  -0.535  -0.526  -0.515  -0.500  -0.497  -0.490  -0.482
 -0.481  -0.470  -0.462  -0.451  -0.438  -0.430  -0.417  -0.380
 -0.356  -0.317  -0.312  -0.287

          Ground-State Mulliken Net Atomic Charges

     Atom                 Charge (a.u.)
  ----------------------------------------
      1 C                    -0.001482
      2 H                     0.145916
      3 C                    -0.135666
      4 C                    -0.124046
      5 C                    -0.029640
      6 C                    -0.168252
      7 C                    -0.040332
      8 C                    -0.127162
      9 H                     0.147156
     10 H                     0.152012
     11 H                     0.153482
     12 C                    -0.157774
     13 H                     0.149612
     14 H                     0.150576
     15 C                    -0.160450
     16 H                     0.150660
     17 C                    -0.124161
     18 C                    -0.150080
     19 C                    -0.206783
     20 C                    -0.206783
     21 C                    -0.161423
     22 C                    -0.202430
     23 C                    -0.202430
     24 H                     0.111790
     25 H                     0.111790
     26 H                     0.124545
     27 H                     0.108997
     28 H                     0.108997
     29 H                     0.118549
     30 H                     0.127306
     31 H                     0.127306
     32 H                     0.128114
     33 H                     0.128114
     34 C                     0.026462
     35 C                    -0.180182
     36 C                    -0.154141
     37 C                    -0.174250
     38 C                    -0.109036
     39 C                    -0.086290
     40 H                     0.153299
     41 H                     0.151011
     42 H                     0.165268
     43 H                     0.197551
     44 C                     0.396354
     45 H                     0.107146
     46 O                    -0.539220
  ----------------------------------------
  Sum of atomic charges =     0.000000

                    Cartesian Multipole Moments
 -----------------------------------------------------------------
    Charge (ESU x 10^10)
                 0.0000
    Dipole Moment (Debye)
         X       3.7629      Y       2.1001      Z       0.0000
       Tot       4.3093
    Quadrupole Moments (Debye-Ang)
        XX    -178.0874     XY     -18.7042     YY    -128.7681
        XZ       0.0000     YZ       0.0000     ZZ    -148.8379

 Total job time:  2076.08s(wall), 2072.74s(cpu)
        *  Thank you very much for using Q-Chem.  Have a nice day.  *
