User input:
--------------------------------------------------------------
$comment
C1,3ea
$end
$molecule
0 1
C      -1.2139807576     0.7983638915     1.7532285894
C       0.0516059952     1.6477199945     1.8926181697
C       1.0757216493     1.3324812873     0.7976434211
C       0.4499840323     1.4976404877    -0.5956514297
C      -0.8090692568     0.6362792193    -0.7361692127
C      -1.8450661117     0.9462258955     0.3582299461
H      -0.2129122473     2.7037643817     1.8431184347
H       0.4942636879     1.4874599847     2.8734352803
H      -0.9657201948    -0.2456896568     1.9341036427
H      -1.9391987216     1.0791629302     2.5117967542
H       0.1512137256     2.5433958686    -0.7021971543
H      -1.2580512265     0.7950245849    -1.7133621039
H      -0.5286088762    -0.4149306408    -0.6922661740
H      -2.1275478351     1.9913167438     0.2442616807
H       1.3477670370     0.2816907298     0.8969826418
C       2.3410239694     2.1911269226     0.9404124370
C       3.3967820539     1.9648536384    -0.1575475400
C       2.7176303662     2.0919013942    -1.5411827446
C       1.4849465791     1.1984024923    -1.6827113074
H       4.1064013245     2.7912079668    -0.0840994624
H       2.0450669309     3.2377114398     0.8940115466
H       2.7808671523     2.0525269968     1.9246427355
H       2.4167899433     3.1298338609    -1.6733961996
H       3.4240218035     1.8772268409    -2.3360229777
H       1.0423857974     1.3438700888    -2.6652906204
H       1.7794925164     0.1515857812    -1.6267509492
C       4.2251810881     0.6977249723    -0.0228581088
C       4.0845062522    -0.2736731084     1.0363368535
C       5.3230081680     0.4867570813    -0.9525205109
C       4.8835865144    -1.3664016727     1.1243617417
H       3.3286978594    -0.1321548466     1.7840321064
C       6.1376127766    -0.5896677594    -0.8904909116
H       5.4971982909     1.2271457700    -1.7129857104
C       5.9352797796    -1.5924332422     0.1439146565
H       4.7537114100    -2.0762325396     1.9216488142
H       6.9440394358    -0.7314223968    -1.5828342287
C       6.7708026517    -2.7638084839     0.2010319674
H       6.5632901841    -3.4692142917     1.0081910225
O       7.6631291977    -2.9828325547    -0.5879519301
C      -4.3143481715     0.7289067733    -0.0198447163
C      -5.5160500693    -0.0162768389    -0.1646035828
C      -3.1145979770     0.1268628992     0.2059897885
C      -6.7675007303     0.6115704144    -0.4001631716
C      -5.4665659311    -1.4190340483    -0.0721104988
C      -3.0813263607    -1.2950967907     0.2971028859
C      -7.9003328042    -0.1267093129    -0.5345295040
H      -6.8064202822     1.6849476701    -0.4711400494
C      -6.6648804464    -2.1652259543    -0.2164150228
C      -4.2091453665    -2.0361855206     0.1636807374
H      -2.1444087722    -1.7923996136     0.4746000821
C      -7.8491595223    -1.5382347654    -0.4412988719
H      -8.8438501126     0.3583315971    -0.7128689733
H      -6.6217882778    -3.2384665996    -0.1449875234
H      -4.1617987299    -3.1093207672     0.2355711177
H      -8.7536679265    -2.1102038060    -0.5497488395
H      -4.3701577016     1.8020731636    -0.0935538146
$end

$rem
MEM_TOTAL	20000
MEM_STATIC	5000
JOBTYPE    freq
SYMMETRY   FALSE
EXCHANGE     	HF
CORRELATION  	none  (built-in)
BASIS       	6-31g**
cis_state_deriv   1
cis_n_roots       3
cis_singlets      false
cis_triplets      true
max_scf_cycles=100
max_cis_cycles=100
$end

--------------------------------------------------------------

   15   -1113.6857537167      8.03E-09 Convergence criterion met
 Total energy in the final basis set = -1113.6857537167
 Frequency:        15.17                  22.28                  37.37
 Force Cnst:      0.0010                 0.0014                 0.0033
 Red. Mass:       7.0567                 4.7081                 4.0128
 IR Intens:        0.547                  0.021                  0.668
 Frequency:        44.44                  61.79                  75.16
 Force Cnst:      0.0062                 0.0087                 0.0152
 Red. Mass:       5.3469                 3.8627                 4.5685
 IR Intens:        0.515                  0.151                  1.207
 Frequency:        97.06                 146.78                 158.32
 Force Cnst:      0.0216                 0.0543                 0.0726
 Red. Mass:       3.8999                 4.2797                 4.9165
 IR Intens:        0.633                  0.384                  1.612
 Frequency:       162.39                 179.51                 203.70
 Force Cnst:      0.0907                 0.0770                 0.0888
 Red. Mass:       5.8361                 4.0570                 3.6334
 IR Intens:        2.947                  1.059                  0.731
 Frequency:       216.80                 222.49                 251.50
 Force Cnst:      0.0784                 0.1287                 0.1023
 Red. Mass:       2.8296                 4.4139                 2.7457
 IR Intens:        5.679                  2.895                  0.724
 Frequency:       257.81                 284.63                 307.04
 Force Cnst:      0.1416                 0.1412                 0.1972
 Red. Mass:       3.6165                 2.9572                 3.5505
 IR Intens:        1.015                  0.242                  2.533
 Frequency:       332.51                 368.93                 385.80
 Force Cnst:      0.1790                 0.2232                 0.2423
 Red. Mass:       2.7481                 2.7826                 2.7626
 IR Intens:        0.977                  2.332                  0.118
 Frequency:       395.76                 405.64                 417.96
 Force Cnst:      0.2310                 0.2883                 0.3424
 Red. Mass:       2.5029                 2.9734                 3.3268
 IR Intens:        3.761                  3.495                  1.855
 Frequency:       426.33                 445.33                 453.54
 Force Cnst:      0.3509                 0.3987                 0.3999
 Red. Mass:       3.2769                 3.4120                 3.3000
 IR Intens:        6.834                  0.514                  0.684
 Frequency:       492.40                 502.26                 516.99
 Force Cnst:      0.5310                 0.5121                 0.4138
 Red. Mass:       3.7175                 3.4454                 2.6277
 IR Intens:        2.083                  2.093                  1.396
 Frequency:       535.84                 542.83                 550.45
 Force Cnst:      0.4452                 0.5519                 0.4705
 Red. Mass:       2.6318                 3.1789                 2.6355
 IR Intens:       11.515                  2.773                  1.001
 Frequency:       565.05                 565.72                 599.14
 Force Cnst:      0.8247                 0.9260                 0.7386
 Red. Mass:       4.3838                 4.9111                 3.4922
 IR Intens:        0.720                 15.734                  1.849
 Frequency:       626.30                 631.22                 661.39
 Force Cnst:      1.0422                 1.1613                 0.9997
 Red. Mass:       4.5097                 4.9470                 3.8789
 IR Intens:        0.822                  0.654                  2.009
 Frequency:       684.57                 708.56                 733.42
 Force Cnst:      1.7332                 1.3366                 0.9013
 Red. Mass:       6.2771                 4.5186                 2.8439
 IR Intens:        3.373                  5.502                  2.288
 Frequency:       781.94                 794.76                 814.60
 Force Cnst:      0.6080                 0.6652                 0.8401
 Red. Mass:       1.6878                 1.7873                 2.1487
 IR Intens:       20.634                  1.028                  0.790
 Frequency:       824.29                 831.17                 839.73
 Force Cnst:      1.0041                 0.8952                 1.9641
 Red. Mass:       2.5081                 2.1994                 4.7276
 IR Intens:        5.288                 49.516                  3.119
 Frequency:       841.20                 842.41                 854.88
 Force Cnst:      1.2418                 0.5808                 1.2881
 Red. Mass:       2.9785                 1.3892                 2.9914
 IR Intens:       59.415                 35.849                  1.298
 Frequency:       879.08                 907.12                 922.71
 Force Cnst:      1.0239                 1.0149                 0.9751
 Red. Mass:       2.2488                 2.0934                 1.9438
 IR Intens:        0.867                  8.002                 20.623
 Frequency:       928.13                 952.52                 965.07
 Force Cnst:      0.9588                 0.8493                 0.8691
 Red. Mass:       1.8890                 1.5888                 1.5839
 IR Intens:       11.064                  0.405                 12.162
 Frequency:       971.87                 986.18                 996.30
 Force Cnst:      1.2244                 1.4700                 1.7997
 Red. Mass:       2.2002                 2.5654                 3.0773
 IR Intens:        4.898                  0.387                 18.107
 Frequency:      1016.14                1026.24                1034.26
 Force Cnst:      0.9861                 1.2725                 0.8678
 Red. Mass:       1.6209                 2.0508                 1.3769
 IR Intens:        9.971                 16.465                  1.081
 Frequency:      1036.36                1046.57                1052.75
 Force Cnst:      1.6827                 1.2024                 0.9033
 Red. Mass:       2.6591                 1.8632                 1.3834
 IR Intens:        0.798                  2.480                  2.206
 Frequency:      1056.45                1065.22                1082.49
 Force Cnst:      1.0970                 1.4136                 1.3461
 Red. Mass:       1.6682                 2.1144                 1.9498
 IR Intens:        1.362                  9.963                  4.593
 Frequency:      1088.05                1098.06                1102.57
 Force Cnst:      0.9648                 1.9461                 1.6920
 Red. Mass:       1.3833                 2.7394                 2.3623
 IR Intens:        4.402                 13.229                 10.591
 Frequency:      1105.31                1113.77                1119.63
 Force Cnst:      1.0439                 1.7055                 0.9864
 Red. Mass:       1.4503                 2.3335                 1.3355
 IR Intens:        6.957                  3.166                  0.028
 Frequency:      1148.82                1161.96                1177.39
 Force Cnst:      1.1421                 1.3707                 1.8502
 Red. Mass:       1.4687                 1.7231                 2.2653
 IR Intens:        4.532                  1.507                  1.440
 Frequency:      1185.23                1203.82                1208.92
 Force Cnst:      1.8493                 1.8142                 1.5167
 Red. Mass:       2.2344                 2.1248                 1.7614
 IR Intens:        6.102                 12.489                  2.431
 Frequency:      1217.50                1225.59                1238.66
 Force Cnst:      1.8919                 1.6050                 1.4363
 Red. Mass:       2.1662                 1.8136                 1.5888
 IR Intens:        7.002                  0.138                  1.090
 Frequency:      1243.30                1247.13                1274.06
 Force Cnst:      1.4873                 1.3695                 1.5439
 Red. Mass:       1.6331                 1.4945                 1.6143
 IR Intens:        2.521                  1.639                  6.119
 Frequency:      1282.01                1286.65                1291.95
 Force Cnst:      1.1810                 1.4651                 1.4683
 Red. Mass:       1.2196                 1.5021                 1.4930
 IR Intens:        1.742                  1.282                  3.076
 Frequency:      1311.35                1315.92                1332.17
 Force Cnst:      1.8585                 1.4301                 2.1408
 Red. Mass:       1.8344                 1.4017                 2.0474
 IR Intens:        1.121                  1.032                  3.698
 Frequency:      1360.95                1374.58                1383.00
 Force Cnst:      2.1144                 1.7221                 1.7640
 Red. Mass:       1.9376                 1.5469                 1.5654
 IR Intens:        1.682                  2.514                  5.948
 Frequency:      1388.32                1393.27                1400.77
 Force Cnst:      2.0171                 2.4097                 2.3516
 Red. Mass:       1.7762                 2.1069                 2.0341
 IR Intens:        5.788                 11.092                 17.868
 Frequency:      1404.95                1424.32                1438.33
 Force Cnst:      1.4547                 1.6135                 1.7396
 Red. Mass:       1.2508                 1.3499                 1.4272
 IR Intens:        1.294                  1.906                  0.625
 Frequency:      1449.35                1459.11                1465.23
 Force Cnst:      1.7673                 1.6243                 1.7192
 Red. Mass:       1.4280                 1.2949                 1.3591
 IR Intens:        0.462                  2.134                  2.827
 Frequency:      1479.16                1489.11                1490.67
 Force Cnst:      4.4542                 1.8151                 2.1392
 Red. Mass:       3.4553                 1.3893                 1.6339
 IR Intens:        0.854                 20.774                  8.211
 Frequency:      1501.53                1505.47                1508.16
 Force Cnst:      2.5625                 1.9138                 2.5081
 Red. Mass:       1.9290                 1.4332                 1.8716
 IR Intens:        0.632                  4.804                  0.446
 Frequency:      1509.67                1519.80                1525.63
 Force Cnst:      2.0861                 1.9711                 2.0505
 Red. Mass:       1.5535                 1.4484                 1.4952
 IR Intens:        3.525                  7.702                  2.127
 Frequency:      1536.26                1540.00                1545.58
 Force Cnst:      2.1954                 2.0652                 2.1980
 Red. Mass:       1.5788                 1.4780                 1.5617
 IR Intens:        2.832                  6.510                  2.207
 Frequency:      1553.54                1565.21                1573.05
 Force Cnst:      2.5387                 2.2277                 4.2820
 Red. Mass:       1.7853                 1.5434                 2.9371
 IR Intens:       11.308                 14.452                  5.618
 Frequency:      1600.40                1614.45                1620.28
 Force Cnst:      3.2858                 1.6814                 1.7051
 Red. Mass:       2.1774                 1.0949                 1.1023
 IR Intens:        2.966                  2.289                  0.514
 Frequency:      1621.47                1627.80                1630.00
 Force Cnst:      1.7010                 1.7219                 2.0369
 Red. Mass:       1.0981                 1.1029                 1.3012
 IR Intens:        2.036                  5.808                  2.675
 Frequency:      1635.85                1638.56                1641.94
 Force Cnst:      2.5211                 1.8918                 4.3706
 Red. Mass:       1.5990                 1.1959                 2.7515
 IR Intens:        4.817                  3.228                  1.449
 Frequency:      1675.36                1725.77                1778.82
 Force Cnst:      4.9863                10.3921                12.2224
 Red. Mass:       3.0152                 5.9223                 6.5560
 IR Intens:       17.496                123.266                  0.500
 Frequency:      1809.26                1846.97                3125.34
 Force Cnst:      9.8540                12.1415                 6.2303
 Red. Mass:       5.1093                 6.0409                 1.0826
 IR Intens:       10.747                 11.422                 38.428
 Frequency:      3128.32                3158.82                3163.33
 Force Cnst:      6.2446                 6.3120                 6.3194
 Red. Mass:       1.0830                 1.0737                 1.0719
 IR Intens:        5.537                 12.416                 11.032
 Frequency:      3168.94                3172.05                3174.35
 Force Cnst:      6.3106                 6.3953                 6.3413
 Red. Mass:       1.0666                 1.0788                 1.0681
 IR Intens:        2.441                  0.971                  8.288
 Frequency:      3176.11                3176.70                3181.45
 Force Cnst:      6.4525                 6.3495                 6.3791
 Red. Mass:       1.0856                 1.0679                 1.0697
 IR Intens:       83.282                 42.077                 30.523
 Frequency:      3183.73                3203.54                3210.92
 Force Cnst:      6.3809                 6.6290                 6.6925
 Red. Mass:       1.0685                 1.0963                 1.1017
 IR Intens:      151.225                 19.944                 11.019
 Frequency:      3216.86                3220.38                3227.60
 Force Cnst:      6.7071                 6.7312                 6.7681
 Red. Mass:       1.1001                 1.1016                 1.1027
 IR Intens:       59.901                 94.353                108.971
 Frequency:      3235.43                3332.41                3334.94
 Force Cnst:      6.7593                 7.1284                 7.1343
 Red. Mass:       1.0959                 1.0895                 1.0887
 IR Intens:       78.421                  5.348                  3.598
 Frequency:      3336.91                3342.21                3352.09
 Force Cnst:      7.1381                 7.1712                 7.2067
 Red. Mass:       1.0880                 1.0896                 1.0886
 IR Intens:       14.089                  0.225                  6.847
 Frequency:      3353.92                3355.49                3361.83
 Force Cnst:      7.2152                 7.2731                 7.3005
 Red. Mass:       1.0887                 1.0964                 1.0964
 IR Intens:       13.340                 40.080                 38.745
 Frequency:      3369.10                3394.79                3401.99
 Force Cnst:      7.3503                 7.4149                 7.4530
 Red. Mass:       1.0991                 1.0920                 1.0930
 IR Intens:       36.777                 15.106                  1.449

 STANDARD THERMODYNAMIC QUANTITIES AT   298.15 K  AND     1.00 ATM

   This Molecule has  0 Imaginary Frequencies
   Zero point vibrational energy:      320.130 kcal/mol

   Atom    1 Element C  Has Mass   12.00000
   Atom    2 Element C  Has Mass   12.00000
   Atom    3 Element C  Has Mass   12.00000
   Atom    4 Element C  Has Mass   12.00000
   Atom    5 Element C  Has Mass   12.00000
   Atom    6 Element C  Has Mass   12.00000
   Atom    7 Element H  Has Mass    1.00783
   Atom    8 Element H  Has Mass    1.00783
   Atom    9 Element H  Has Mass    1.00783
   Atom   10 Element H  Has Mass    1.00783
   Atom   11 Element H  Has Mass    1.00783
   Atom   12 Element H  Has Mass    1.00783
   Atom   13 Element H  Has Mass    1.00783
   Atom   14 Element H  Has Mass    1.00783
   Atom   15 Element H  Has Mass    1.00783
   Atom   16 Element C  Has Mass   12.00000
   Atom   17 Element C  Has Mass   12.00000
   Atom   18 Element C  Has Mass   12.00000
   Atom   19 Element C  Has Mass   12.00000
   Atom   20 Element H  Has Mass    1.00783
   Atom   21 Element H  Has Mass    1.00783
   Atom   22 Element H  Has Mass    1.00783
   Atom   23 Element H  Has Mass    1.00783
   Atom   24 Element H  Has Mass    1.00783
   Atom   25 Element H  Has Mass    1.00783
   Atom   26 Element H  Has Mass    1.00783
   Atom   27 Element C  Has Mass   12.00000
   Atom   28 Element C  Has Mass   12.00000
   Atom   29 Element C  Has Mass   12.00000
   Atom   30 Element C  Has Mass   12.00000
   Atom   31 Element H  Has Mass    1.00783
   Atom   32 Element C  Has Mass   12.00000
   Atom   33 Element H  Has Mass    1.00783
   Atom   34 Element C  Has Mass   12.00000
   Atom   35 Element H  Has Mass    1.00783
   Atom   36 Element H  Has Mass    1.00783
   Atom   37 Element C  Has Mass   12.00000
   Atom   38 Element H  Has Mass    1.00783
   Atom   39 Element O  Has Mass   15.99491
   Atom   40 Element C  Has Mass   12.00000
   Atom   41 Element C  Has Mass   12.00000
   Atom   42 Element C  Has Mass   12.00000
   Atom   43 Element C  Has Mass   12.00000
   Atom   44 Element C  Has Mass   12.00000
   Atom   45 Element C  Has Mass   12.00000
   Atom   46 Element C  Has Mass   12.00000
   Atom   47 Element H  Has Mass    1.00783
   Atom   48 Element C  Has Mass   12.00000
   Atom   49 Element C  Has Mass   12.00000
   Atom   50 Element H  Has Mass    1.00783
   Atom   51 Element C  Has Mass   12.00000
   Atom   52 Element H  Has Mass    1.00783
   Atom   53 Element H  Has Mass    1.00783
   Atom   54 Element H  Has Mass    1.00783
   Atom   55 Element H  Has Mass    1.00783
   Atom   56 Element H  Has Mass    1.00783
   Molecular Mass:   368.214150 amu
   Principal axes and moments of inertia in atomic units:
                             1           2           3
    Eigenvalues --     4225.46596 30637.93894 32702.71225
          X               0.99999     0.00484     0.00013
          Y              -0.00484     0.99991    -0.01241
          Z              -0.00019     0.01241     0.99992
   Rotational Symmetry Number is   1
   The Molecule is an Asymmetric Top
   Translational Enthalpy:        0.889 kcal/mol
   Rotational Enthalpy:           0.889 kcal/mol
   Vibrational Enthalpy:        332.040 kcal/mol
   gas constant (RT):             0.592 kcal/mol
   Translational Entropy:        43.603  cal/mol.K
   Rotational Entropy:           36.691  cal/mol.K
   Vibrational Entropy:          79.116  cal/mol.K

   Total Enthalpy:              334.410 kcal/mol
   Total Entropy:               159.410  cal/mol.K

 Total job time:  62953.22s(wall), 60205.96s(cpu)
        *  Thank you very much for using Q-Chem.  Have a nice day.  *

User input:
--------------------------------------------------------------
$molecule
read
$end

$rem
scf_convergence=10
cis_convergence=10
thresh=12
max_scf_cycles=100
max_cis_cycles=100
MEM_TOTAL	20000
MEM_STATIC	5000
JOBTYPE    force
SYMMETRY   FALSE
EXCHANGE     	HF
CORRELATION  	none  (built-in)
BASIS       	6-31g**
cis_state_deriv   1
cis_n_roots       3
cis_singlets      false
cis_triplets      true
scf_guess read
$end

--------------------------------------------------------------

    6   -1113.6857537010      6.19E-11 Convergence criterion met
 Total energy in the final basis set = -1113.6857537010
 Total job time:  7739.21s(wall), 7717.42s(cpu)

User input:
--------------------------------------------------------------
$molecule
read
$end

$rem
scf_convergence=10
cis_convergence=10
thresh=12
max_scf_cycles=100
max_cis_cycles=100
MEM_TOTAL	20000
MEM_STATIC	5000
JOBTYPE    Force
SYMMETRY   FALSE
EXCHANGE     	HF
CORRELATION  	none  (built-in)
BASIS       	6-31g**
cis_state_deriv   2
cis_n_roots       3
cis_singlets      false
cis_triplets      true
scf_guess read
$end

--------------------------------------------------------------

    2   -1113.6857537009      2.87E-11 Convergence criterion met
 Total energy in the final basis set = -1113.6857537009
        *  Thank you very much for using Q-Chem.  Have a nice day.  *

             Standard Nuclear Orientation (Angstroms)
    I     Atom           X                Y                Z
 ----------------------------------------------------------------
    1      C      -1.2139807576     0.7983638915     1.7532285894
    2      C       0.0516059952     1.6477199945     1.8926181697
    3      C       1.0757216493     1.3324812873     0.7976434211
    4      C       0.4499840323     1.4976404877    -0.5956514297
    5      C      -0.8090692568     0.6362792193    -0.7361692127
    6      C      -1.8450661117     0.9462258955     0.3582299461
    7      H      -0.2129122473     2.7037643817     1.8431184347
    8      H       0.4942636879     1.4874599847     2.8734352803
    9      H      -0.9657201948    -0.2456896568     1.9341036427
   10      H      -1.9391987216     1.0791629302     2.5117967542
   11      H       0.1512137256     2.5433958686    -0.7021971543
   12      H      -1.2580512265     0.7950245849    -1.7133621039
   13      H      -0.5286088762    -0.4149306408    -0.6922661740
   14      H      -2.1275478351     1.9913167438     0.2442616807
   15      H       1.3477670370     0.2816907298     0.8969826418
   16      C       2.3410239694     2.1911269226     0.9404124370
   17      C       3.3967820539     1.9648536384    -0.1575475400
   18      C       2.7176303662     2.0919013942    -1.5411827446
   19      C       1.4849465791     1.1984024923    -1.6827113074
   20      H       4.1064013245     2.7912079668    -0.0840994624
   21      H       2.0450669309     3.2377114398     0.8940115466
   22      H       2.7808671523     2.0525269968     1.9246427355
   23      H       2.4167899433     3.1298338609    -1.6733961996
   24      H       3.4240218035     1.8772268409    -2.3360229777
   25      H       1.0423857974     1.3438700888    -2.6652906204
   26      H       1.7794925164     0.1515857812    -1.6267509492
   27      C       4.2251810881     0.6977249723    -0.0228581088
   28      C       4.0845062522    -0.2736731084     1.0363368535
   29      C       5.3230081680     0.4867570813    -0.9525205109
   30      C       4.8835865144    -1.3664016727     1.1243617417
   31      H       3.3286978594    -0.1321548466     1.7840321064
   32      C       6.1376127766    -0.5896677594    -0.8904909116
   33      H       5.4971982909     1.2271457700    -1.7129857104
   34      C       5.9352797796    -1.5924332422     0.1439146565
   35      H       4.7537114100    -2.0762325396     1.9216488142
   36      H       6.9440394358    -0.7314223968    -1.5828342287
   37      C       6.7708026517    -2.7638084839     0.2010319674
   38      H       6.5632901841    -3.4692142917     1.0081910225
   39      O       7.6631291977    -2.9828325547    -0.5879519301
   40      C      -4.3143481715     0.7289067733    -0.0198447163
   41      C      -5.5160500693    -0.0162768389    -0.1646035828
   42      C      -3.1145979770     0.1268628992     0.2059897885
   43      C      -6.7675007303     0.6115704144    -0.4001631716
   44      C      -5.4665659311    -1.4190340483    -0.0721104988
   45      C      -3.0813263607    -1.2950967907     0.2971028859
   46      C      -7.9003328042    -0.1267093129    -0.5345295040
   47      H      -6.8064202822     1.6849476701    -0.4711400494
   48      C      -6.6648804464    -2.1652259543    -0.2164150228
   49      C      -4.2091453665    -2.0361855206     0.1636807374
   50      H      -2.1444087722    -1.7923996136     0.4746000821
   51      C      -7.8491595223    -1.5382347654    -0.4412988719
   52      H      -8.8438501126     0.3583315971    -0.7128689733
   53      H      -6.6217882778    -3.2384665996    -0.1449875234
   54      H      -4.1617987299    -3.1093207672     0.2355711177
   55      H      -8.7536679265    -2.1102038060    -0.5497488395
   56      H      -4.3701577016     1.8020731636    -0.0935538146
 ----------------------------------------------------------------

    2   -1113.6857537009      2.28E-11 Convergence criterion met
 Total energy in the final basis set = -1113.6857537009

               CIS Excitation Energies
 ---------------------------------------------------

 Excited state   1: excitation energy (eV) =    2.5273
    Total energy for state   1:  -1113.592875771147
    Multiplicity: Triplet
    Trans. Mom.:  0.0000 X   0.0000 Y   0.0000 Z
    Strength   :  0.0000
    D( 96) --> V(  4) amplitude =  0.2789
    D( 97) --> V(  1) amplitude =  0.8992

 Excited state   2: excitation energy (eV) =    2.7871
    Total energy for state   2:  -1113.583330939186
    Multiplicity: Triplet
    Trans. Mom.:  0.0000 X   0.0000 Y   0.0000 Z
    Strength   :  0.0000
    D( 95) --> V(  5) amplitude = -0.3248
    D( 98) --> V(  3) amplitude =  0.3754
    D( 99) --> V(  2) amplitude = -0.8036

 ---------------------------------------------------

                    Orbital Energies (a.u.)
 --------------------------------------------------------------

 Alpha MOs
 -- Occupied --
-20.548 -11.322 -11.275 -11.260 -11.251 -11.247 -11.246 -11.243
-11.241 -11.237 -11.236 -11.236 -11.232 -11.232 -11.231 -11.231
-11.230 -11.229 -11.229 -11.228 -11.227 -11.226 -11.226 -11.225
-11.221 -11.221 -11.220 -11.219  -1.378  -1.177  -1.164  -1.146
 -1.119  -1.091  -1.052  -1.046  -1.039  -1.033  -1.008  -0.992
 -0.983  -0.965  -0.901  -0.866  -0.850  -0.845  -0.828  -0.819
 -0.813  -0.809  -0.783  -0.767  -0.758  -0.701  -0.700  -0.689
 -0.672  -0.663  -0.648  -0.643  -0.634  -0.622  -0.619  -0.614
 -0.606  -0.600  -0.599  -0.591  -0.589  -0.579  -0.576  -0.568
 -0.557  -0.546  -0.540  -0.532  -0.526  -0.525  -0.513  -0.506
 -0.500  -0.493  -0.491  -0.483  -0.480  -0.476  -0.470  -0.465
 -0.460  -0.452  -0.436  -0.417  -0.416  -0.411  -0.378  -0.355
 -0.316  -0.310  -0.286

          Ground-State Mulliken Net Atomic Charges

     Atom                 Charge (a.u.)
  ----------------------------------------
      1 C                    -0.200761
      2 C                    -0.208496
      3 C                    -0.124472
      4 C                    -0.126264
      5 C                    -0.184851
      6 C                    -0.159176
      7 H                     0.107178
      8 H                     0.112138
      9 H                     0.106376
     10 H                     0.124208
     11 H                     0.103719
     12 H                     0.122799
     13 H                     0.106316
     14 H                     0.119526
     15 H                     0.109631
     16 C                    -0.213777
     17 C                    -0.154727
     18 C                    -0.214553
     19 C                    -0.205431
     20 H                     0.144949
     21 H                     0.116705
     22 H                     0.119032
     23 H                     0.115323
     24 H                     0.121060
     25 H                     0.117298
     26 H                     0.117383
     27 C                     0.026187
     28 C                    -0.168510
     29 C                    -0.161978
     30 C                    -0.116053
     31 H                     0.153611
     32 C                    -0.084517
     33 H                     0.152040
     34 C                    -0.180576
     35 H                     0.164158
     36 H                     0.196781
     37 C                     0.397065
     38 H                     0.106326
     39 O                    -0.538755
     40 C                    -0.160279
     41 C                    -0.026774
     42 C                     0.010689
     43 C                    -0.127630
     44 C                    -0.041287
     45 C                    -0.149159
     46 C                    -0.157897
     47 H                     0.150135
     48 C                    -0.125350
     49 C                    -0.125712
     50 H                     0.147161
     51 C                    -0.160348
     52 H                     0.149910
     53 H                     0.151253
     54 H                     0.152194
     55 H                     0.149874
     56 H                     0.146308
  ----------------------------------------
  Sum of atomic charges =     0.000000

                    Cartesian Multipole Moments
 -----------------------------------------------------------------
    Charge (ESU x 10^10)
                 0.0000
    Dipole Moment (Debye)
         X      -3.2019      Y       2.5997      Z       1.4886
       Tot       4.3848
    Quadrupole Moments (Debye-Ang)
        XX    -203.7314     XY      19.0596     YY    -161.9447
        XZ      10.6210     YZ      -8.9919     ZZ    -168.6641

 Total job time:  3846.35s(wall), 3839.60s(cpu)
        *  Thank you very much for using Q-Chem.  Have a nice day.  *
