User input:
--------------------------------------------------------------
$comment
C1,3ea
$end
$molecule
0 1
C        -1.6702956458   -2.0997249069    1.6779178911
C        -0.3495380409   -1.3380447878    1.8271736008
C         0.5937713437   -1.5803065352    0.6445210775
C        -0.0930403651   -1.2414122027   -0.6882131576
C        -1.3971751934   -2.0309398593   -0.8461212527
C        -2.3946655161   -1.9011697156    0.3271627971
H        -0.5314206533   -0.2724467599    1.9356571189
H         0.1347111673   -1.6524541645    2.7489872010
H        -1.4524558591   -3.1623577808    1.7728008693
H        -2.3418040879   -1.8504617699    2.4942063068
H        -0.3244550288   -0.1767644091   -0.6853971670
H        -1.8904994104   -1.7527714191   -1.7734240257
H        -1.1378837034   -3.0853219866   -0.9394087190
H        -3.0747088754   -2.7416536085    0.2305970440
H         0.8305253751   -2.6471489118    0.6250816995
C         1.9115401107   -0.8132057378    0.7991123640
C         2.8735738825   -1.0591703937   -0.3792863895
C         2.1751889745   -0.7306688234   -1.7125885259
C         0.8577602928   -1.4943105170   -1.8630691454
H         1.6971060535    0.2517154133    0.8784073048
H         2.3974858799   -1.0989875007    1.7287825728
H         1.9781725155    0.3382826935   -1.7673864324
H         2.8398510773   -0.9648855288   -2.5395935841
H         0.3753270609   -1.2120005989   -2.7957647430
H         1.0654583598   -2.5619465329   -1.9332227921
H         3.0960300231   -2.1252819624   -0.3911525557
C         4.1884763279   -0.3327373363   -0.2159535283
C         5.4321247085   -1.0634739507   -0.1033893452
C         4.2644510603    1.1081053001   -0.1642106554
C         6.6257880760   -0.4390128492    0.0448503834
H         5.3979882429   -2.1385799965   -0.1398167907
C         5.4401006453    1.7643938441   -0.0168756779
H         3.3564074348    1.6785003101   -0.2456701760
C         6.6864484615    1.0121362045    0.0955491034
H         7.5374779991   -1.0034252148    0.1263435306
H         5.4922693500    2.8345106226    0.0209634417
C         7.9404658725    1.7000435068    0.2526099143
H         8.8317601359    1.0744653487    0.3301549066
O         8.0344499227    2.9073828225    0.2997681286
C        -4.6262194813   -0.8428866763    0.0092158459
C        -5.5329080876    0.2459840923   -0.0817932320
C        -3.2949495812   -0.6710471352    0.2530400621
C        -6.9171162651    0.0543744818   -0.3371002454
C        -5.0485092064    1.5551207785    0.0865672081
C        -2.8243059652    0.6646633324    0.4215417436
C        -7.7606030656    1.1159736273   -0.4182514105
H        -7.2893893307   -0.9473529305   -0.4659231454
C        -5.9520464074    2.6464102179   -0.0029683564
C        -3.6642918366    1.7282711357    0.3418982335
H        -1.7867797565    0.8468138388    0.6169942631
C        -7.2709197284    2.4341306717   -0.2485202496
H        -8.8073906412    0.9613133103   -0.6121459845
H        -5.5757234506    3.6465481268    0.1269326656
H        -3.2803728579    2.7253876977    0.4743723345
H        -7.9508889016    3.2649226246   -0.3153481779
H        -5.0209837532   -1.8363150307   -0.1213746741
$end

$rem
MEM_TOTAL	20000
MEM_STATIC	5000
JOBTYPE    freq
SYMMETRY   FALSE
EXCHANGE     	HF
CORRELATION  	none  (built-in)
BASIS       	6-31g**
cis_state_deriv   1
cis_n_roots       3
cis_singlets      false
cis_triplets      true
max_scf_cycles=100
max_cis_cycles=100
$end

--------------------------------------------------------------

   15   -1113.6843865034      6.59E-09 Convergence criterion met
 Total energy in the final basis set = -1113.6843865034
 Frequency:        13.58                  17.90                  29.13
 Force Cnst:      0.0005                 0.0011                 0.0020
 Red. Mass:       4.7380                 5.6724                 3.9198
 IR Intens:        0.053                  0.229                  0.455
 Frequency:        34.75                  61.82                  80.06
 Force Cnst:      0.0042                 0.0098                 0.0151
 Red. Mass:       5.9691                 4.3671                 4.0053
 IR Intens:        1.556                  0.238                  0.300
 Frequency:       110.31                 119.99                 149.92
 Force Cnst:      0.0349                 0.0303                 0.0742
 Red. Mass:       4.8698                 3.5712                 5.5998
 IR Intens:        1.671                  0.185                  1.142
 Frequency:       162.63                 191.63                 205.20
 Force Cnst:      0.0751                 0.0761                 0.0880
 Red. Mass:       4.8166                 3.5168                 3.5471
 IR Intens:        1.200                  2.069                  3.878
 Frequency:       216.89                 220.71                 245.70
 Force Cnst:      0.0929                 0.1145                 0.1300
 Red. Mass:       3.3530                 3.9883                 3.6546
 IR Intens:        1.446                  3.094                  1.751
 Frequency:       264.30                 267.59                 291.14
 Force Cnst:      0.1154                 0.1510                 0.1360
 Red. Mass:       2.8036                 3.5786                 2.7233
 IR Intens:        0.450                  2.373                  2.800
 Frequency:       329.10                 343.96                 370.80
 Force Cnst:      0.1477                 0.2219                 0.1584
 Red. Mass:       2.3153                 3.1836                 1.9554
 IR Intens:        1.480                  2.819                  0.058
 Frequency:       390.42                 414.82                 415.21
 Force Cnst:      0.2810                 0.3351                 0.4016
 Red. Mass:       3.1290                 3.3050                 3.9532
 IR Intens:        0.460                  0.037                  1.990
 Frequency:       436.79                 450.67                 461.46
 Force Cnst:      0.4024                 0.4249                 0.5554
 Red. Mass:       3.5800                 3.5506                 4.4269
 IR Intens:        2.601                  6.032                  0.991
 Frequency:       472.31                 500.01                 517.28
 Force Cnst:      0.4272                 0.5444                 0.3901
 Red. Mass:       3.2504                 3.6955                 2.4743
 IR Intens:        5.275                  1.654                  1.292
 Frequency:       527.55                 537.84                 546.04
 Force Cnst:      0.5762                 0.4386                 0.3950
 Red. Mass:       3.5141                 2.5733                 2.2483
 IR Intens:        5.337                 15.057                  2.002
 Frequency:       560.90                 566.85                 596.67
 Force Cnst:      1.0184                 0.8617                 0.8511
 Red. Mass:       5.4943                 4.5519                 4.0578
 IR Intens:        2.904                  9.545                  3.017
 Frequency:       606.39                 667.61                 674.22
 Force Cnst:      0.7372                 1.4617                 1.5720
 Red. Mass:       3.4028                 5.5664                 5.8695
 IR Intens:        0.547                  0.835                  6.007
 Frequency:       677.67                 701.34                 741.72
 Force Cnst:      1.1690                 1.3305                 0.8626
 Red. Mass:       4.3203                 4.5909                 2.6613
 IR Intens:        3.792                  0.911                  2.101
 Frequency:       793.06                 802.82                 811.65
 Force Cnst:      0.4710                 1.0952                 0.8668
 Red. Mass:       1.2711                 2.8840                 2.2332
 IR Intens:        6.937                  3.529                  6.427
 Frequency:       820.32                 823.28                 841.19
 Force Cnst:      1.2379                 0.5753                 1.2809
 Red. Mass:       3.1224                 1.4407                 3.0723
 IR Intens:       47.033                 44.976                 19.132
 Frequency:       843.16                 845.30                 854.90
 Force Cnst:      0.6631                 1.8762                 1.2288
 Red. Mass:       1.5832                 4.4567                 2.8535
 IR Intens:       31.217                 29.324                  2.397
 Frequency:       878.42                 900.49                 923.51
 Force Cnst:      1.3032                 1.0310                 1.3462
 Red. Mass:       2.8665                 2.1579                 2.6791
 IR Intens:        1.145                  4.407                  7.311
 Frequency:       925.32                 950.27                 964.53
 Force Cnst:      0.7174                 0.8585                 0.9241
 Red. Mass:       1.4222                 1.6136                 1.6860
 IR Intens:       29.918                  1.628                  9.706
 Frequency:       975.28                 981.67                1003.28
 Force Cnst:      1.0901                 1.5187                 1.9364
 Red. Mass:       1.9451                 2.6747                 3.2652
 IR Intens:        4.194                  0.072                 28.669
 Frequency:      1017.03                1022.65                1030.74
 Force Cnst:      1.0043                 1.5428                 0.8267
 Red. Mass:       1.6479                 2.5039                 1.3207
 IR Intens:       14.119                  5.641                  0.085
 Frequency:      1035.65                1044.65                1046.13
 Force Cnst:      1.8939                 0.9413                 0.9684
 Red. Mass:       2.9969                 1.4640                 1.5019
 IR Intens:        1.688                  6.447                  8.450
 Frequency:      1052.99                1068.21                1074.51
 Force Cnst:      1.0924                 1.4292                 1.5601
 Red. Mass:       1.6722                 2.1258                 2.2935
 IR Intens:        1.228                  7.586                 10.153
 Frequency:      1088.37                1092.89                1102.57
 Force Cnst:      0.9327                 1.9022                 1.6028
 Red. Mass:       1.3363                 2.7030                 2.2378
 IR Intens:        1.979                 13.384                 17.178
 Frequency:      1106.45                1112.98                1119.90
 Force Cnst:      0.9987                 1.7827                 0.9834
 Red. Mass:       1.3847                 2.4426                 1.3308
 IR Intens:        3.784                  6.663                  0.001
 Frequency:      1148.22                1169.42                1174.52
 Force Cnst:      1.1402                 1.5385                 1.8839
 Red. Mass:       1.4678                 1.9094                 2.3179
 IR Intens:        0.684                  1.936                  0.515
 Frequency:      1179.91                1200.62                1204.38
 Force Cnst:      1.8360                 1.4003                 1.6757
 Red. Mass:       2.2383                 1.6488                 1.9608
 IR Intens:        3.712                  5.483                  0.538
 Frequency:      1219.66                1222.92                1230.44
 Force Cnst:      2.2041                 1.5552                 1.2510
 Red. Mass:       2.5148                 1.7650                 1.4025
 IR Intens:        1.594                  0.461                  3.421
 Frequency:      1244.36                1250.06                1276.17
 Force Cnst:      1.4639                 1.5439                 1.3995
 Red. Mass:       1.6046                 1.6769                 1.4585
 IR Intens:        0.372                  3.499                  2.767
 Frequency:      1282.99                1291.14                1303.11
 Force Cnst:      1.1523                 1.4123                 1.6318
 Red. Mass:       1.1882                 1.4379                 1.6310
 IR Intens:        0.231                  1.958                  3.051
 Frequency:      1310.54                1318.34                1335.15
 Force Cnst:      2.7866                 1.4581                 3.0035
 Red. Mass:       2.7537                 1.4239                 2.8597
 IR Intens:        0.297                  1.170                  1.205
 Frequency:      1354.16                1378.33                1381.32
 Force Cnst:      1.6364                 1.5115                 1.8792
 Red. Mass:       1.5146                 1.3504                 1.6716
 IR Intens:        2.629                  3.020                  0.700
 Frequency:      1392.20                1397.67                1409.92
 Force Cnst:      2.0960                 3.1952                 1.7007
 Red. Mass:       1.8354                 2.7761                 1.4521
 IR Intens:        6.226                 11.855                  9.695
 Frequency:      1413.10                1427.51                1448.33
 Force Cnst:      1.6186                 1.5986                 2.0413
 Red. Mass:       1.3757                 1.3315                 1.6517
 IR Intens:        3.590                  3.429                  9.395
 Frequency:      1452.23                1459.75                1461.71
 Force Cnst:      1.9069                 1.6591                 1.6630
 Red. Mass:       1.5347                 1.3215                 1.3210
 IR Intens:        3.350                  0.395                  3.333
 Frequency:      1476.50                1485.23                1488.53
 Force Cnst:      1.8433                 3.0389                 2.1839
 Red. Mass:       1.4351                 2.3382                 1.6729
 IR Intens:        3.931                  4.132                  0.648
 Frequency:      1500.11                1503.39                1506.56
 Force Cnst:      1.8410                 3.0839                 1.8701
 Red. Mass:       1.3886                 2.3158                 1.3984
 IR Intens:        4.291                  0.637                  0.303
 Frequency:      1518.94                1522.74                1532.88
 Force Cnst:      2.0451                 2.0909                 2.2788
 Red. Mass:       1.5045                 1.5305                 1.6461
 IR Intens:        5.108                  4.488                  5.658
 Frequency:      1536.17                1537.66                1542.42
 Force Cnst:      2.2044                 1.9741                 2.2622
 Red. Mass:       1.5855                 1.4171                 1.6139
 IR Intens:        5.619                  5.390                  3.276
 Frequency:      1551.75                1561.80                1576.45
 Force Cnst:      2.3962                 2.3817                 3.3779
 Red. Mass:       1.6890                 1.6572                 2.3070
 IR Intens:       17.231                  7.299                 10.161
 Frequency:      1601.92                1611.98                1617.00
 Force Cnst:      3.0808                 1.6715                 1.6963
 Red. Mass:       2.0376                 1.0918                 1.1011
 IR Intens:        3.086                  2.210                  0.093
 Frequency:      1619.85                1625.55                1630.02
 Force Cnst:      1.7312                 1.7977                 2.0311
 Red. Mass:       1.1198                 1.1547                 1.2975
 IR Intens:        0.277                 10.796                  3.561
 Frequency:      1632.54                1633.89                1639.01
 Force Cnst:      3.7416                 2.5682                 1.8692
 Red. Mass:       2.3828                 1.6328                 1.1810
 IR Intens:        0.538                  0.650                  5.310
 Frequency:      1676.47                1712.80                1776.80
 Force Cnst:      4.8542                 9.8075                11.9881
 Red. Mass:       2.9314                 5.6741                 6.4450
 IR Intens:       19.667                120.403                  0.072
 Frequency:      1806.59                1845.26                3126.42
 Force Cnst:      9.7757                12.0110                 6.2371
 Red. Mass:       5.0837                 5.9871                 1.0830
 IR Intens:       10.603                  8.769                  7.453
 Frequency:      3156.61                3160.63                3166.18
 Force Cnst:      6.2687                 6.3250                 6.3318
 Red. Mass:       1.0678                 1.0746                 1.0720
 IR Intens:        6.018                 17.938                 10.611
 Frequency:      3166.58                3169.71                3175.58
 Force Cnst:      6.3476                 6.3292                 6.3858
 Red. Mass:       1.0744                 1.0692                 1.0748
 IR Intens:       25.045                  6.004                 49.678
 Frequency:      3177.88                3179.41                3186.97
 Force Cnst:      6.4555                 6.3631                 6.3845
 Red. Mass:       1.0849                 1.0684                 1.0669
 IR Intens:       87.638                 53.902                 69.015
 Frequency:      3205.85                3208.59                3211.80
 Force Cnst:      6.5706                 6.6487                 6.6883
 Red. Mass:       1.0851                 1.0961                 1.1004
 IR Intens:       46.533                 14.093                  9.376
 Frequency:      3219.37                3220.62                3224.84
 Force Cnst:      6.7030                 6.7101                 6.7576
 Red. Mass:       1.0977                 1.0980                 1.1029
 IR Intens:      110.898                 11.922                 52.991
 Frequency:      3231.25                3333.13                3335.78
 Force Cnst:      6.7709                 7.1262                 7.1409
 Red. Mass:       1.1007                 1.0887                 1.0892
 IR Intens:      176.792                  3.549                  7.442
 Frequency:      3339.31                3340.97                3343.66
 Force Cnst:      7.1644                 7.1460                 7.1819
 Red. Mass:       1.0905                 1.0866                 1.0903
 IR Intens:       10.553                  7.038                  2.181
 Frequency:      3355.70                3355.84                3362.40
 Force Cnst:      7.2251                 7.2751                 7.2938
 Red. Mass:       1.0890                 1.0964                 1.0950
 IR Intens:       16.314                 46.724                 17.277
 Frequency:      3369.16                3403.91                3408.09
 Force Cnst:      7.3510                 7.4587                 7.4724
 Red. Mass:       1.0991                 1.0926                 1.0919
 IR Intens:       41.764                  1.489                 22.385

 STANDARD THERMODYNAMIC QUANTITIES AT   298.15 K  AND     1.00 ATM

   This Molecule has  0 Imaginary Frequencies
   Zero point vibrational energy:      320.067 kcal/mol

   Atom    1 Element C  Has Mass   12.00000
   Atom    2 Element C  Has Mass   12.00000
   Atom    3 Element C  Has Mass   12.00000
   Atom    4 Element C  Has Mass   12.00000
   Atom    5 Element C  Has Mass   12.00000
   Atom    6 Element C  Has Mass   12.00000
   Atom    7 Element H  Has Mass    1.00783
   Atom    8 Element H  Has Mass    1.00783
   Atom    9 Element H  Has Mass    1.00783
   Atom   10 Element H  Has Mass    1.00783
   Atom   11 Element H  Has Mass    1.00783
   Atom   12 Element H  Has Mass    1.00783
   Atom   13 Element H  Has Mass    1.00783
   Atom   14 Element H  Has Mass    1.00783
   Atom   15 Element H  Has Mass    1.00783
   Atom   16 Element C  Has Mass   12.00000
   Atom   17 Element C  Has Mass   12.00000
   Atom   18 Element C  Has Mass   12.00000
   Atom   19 Element C  Has Mass   12.00000
   Atom   20 Element H  Has Mass    1.00783
   Atom   21 Element H  Has Mass    1.00783
   Atom   22 Element H  Has Mass    1.00783
   Atom   23 Element H  Has Mass    1.00783
   Atom   24 Element H  Has Mass    1.00783
   Atom   25 Element H  Has Mass    1.00783
   Atom   26 Element H  Has Mass    1.00783
   Atom   27 Element C  Has Mass   12.00000
   Atom   28 Element C  Has Mass   12.00000
   Atom   29 Element C  Has Mass   12.00000
   Atom   30 Element C  Has Mass   12.00000
   Atom   31 Element H  Has Mass    1.00783
   Atom   32 Element C  Has Mass   12.00000
   Atom   33 Element H  Has Mass    1.00783
   Atom   34 Element C  Has Mass   12.00000
   Atom   35 Element H  Has Mass    1.00783
   Atom   36 Element H  Has Mass    1.00783
   Atom   37 Element C  Has Mass   12.00000
   Atom   38 Element H  Has Mass    1.00783
   Atom   39 Element O  Has Mass   15.99491
   Atom   40 Element C  Has Mass   12.00000
   Atom   41 Element C  Has Mass   12.00000
   Atom   42 Element C  Has Mass   12.00000
   Atom   43 Element C  Has Mass   12.00000
   Atom   44 Element C  Has Mass   12.00000
   Atom   45 Element C  Has Mass   12.00000
   Atom   46 Element C  Has Mass   12.00000
   Atom   47 Element H  Has Mass    1.00783
   Atom   48 Element C  Has Mass   12.00000
   Atom   49 Element C  Has Mass   12.00000
   Atom   50 Element H  Has Mass    1.00783
   Atom   51 Element C  Has Mass   12.00000
   Atom   52 Element H  Has Mass    1.00783
   Atom   53 Element H  Has Mass    1.00783
   Atom   54 Element H  Has Mass    1.00783
   Atom   55 Element H  Has Mass    1.00783
   Atom   56 Element H  Has Mass    1.00783
   Molecular Mass:   368.214150 amu
   Principal axes and moments of inertia in atomic units:
                             1           2           3
    Eigenvalues --     4054.58874 31344.84562 33647.84676
          X               0.99999    -0.00380    -0.00036
          Y               0.00380     0.99999    -0.00087
          Z               0.00037     0.00087     1.00000
   Rotational Symmetry Number is   1
   The Molecule is an Asymmetric Top
   Translational Enthalpy:        0.889 kcal/mol
   Rotational Enthalpy:           0.889 kcal/mol
   Vibrational Enthalpy:        332.072 kcal/mol
   gas constant (RT):             0.592 kcal/mol
   Translational Entropy:        43.603  cal/mol.K
   Rotational Entropy:           36.701  cal/mol.K
   Vibrational Entropy:          81.127  cal/mol.K

   Total Enthalpy:              334.442 kcal/mol
   Total Entropy:               161.431  cal/mol.K

 Total job time:  61231.00s(wall), 58522.00s(cpu)
        *  Thank you very much for using Q-Chem.  Have a nice day.  *

User input:
--------------------------------------------------------------
$molecule
read
$end

$rem
scf_convergence=10
cis_convergence=10
thresh=12
max_scf_cycles=100
max_cis_cycles=100
MEM_TOTAL	20000
MEM_STATIC	5000
JOBTYPE    force
SYMMETRY   FALSE
EXCHANGE     	HF
CORRELATION  	none  (built-in)
BASIS       	6-31g**
cis_state_deriv   1
cis_n_roots       3
cis_singlets      false
cis_triplets      true
scf_guess read
$end

--------------------------------------------------------------

    6   -1113.6843864883      4.74E-11 Convergence criterion met
 Total energy in the final basis set = -1113.6843864883
 Total job time:  7725.63s(wall), 7704.83s(cpu)

User input:
--------------------------------------------------------------
$molecule
read
$end

$rem
scf_convergence=10
cis_convergence=10
thresh=12
max_scf_cycles=100
max_cis_cycles=100
MEM_TOTAL	20000
MEM_STATIC	5000
JOBTYPE    Force
SYMMETRY   FALSE
EXCHANGE     	HF
CORRELATION  	none  (built-in)
BASIS       	6-31g**
cis_state_deriv   2
cis_n_roots       3
cis_singlets      false
cis_triplets      true
scf_guess read
$end

--------------------------------------------------------------

    2   -1113.6843864882      2.61E-11 Convergence criterion met
 Total energy in the final basis set = -1113.6843864882
        *  Thank you very much for using Q-Chem.  Have a nice day.  *

             Standard Nuclear Orientation (Angstroms)
    I     Atom           X                Y                Z
 ----------------------------------------------------------------
    1      C      -1.6702956458    -2.0997249069     1.6779178911
    2      C      -0.3495380409    -1.3380447878     1.8271736008
    3      C       0.5937713437    -1.5803065352     0.6445210775
    4      C      -0.0930403651    -1.2414122027    -0.6882131576
    5      C      -1.3971751934    -2.0309398593    -0.8461212527
    6      C      -2.3946655161    -1.9011697156     0.3271627971
    7      H      -0.5314206533    -0.2724467599     1.9356571189
    8      H       0.1347111673    -1.6524541645     2.7489872010
    9      H      -1.4524558591    -3.1623577808     1.7728008693
   10      H      -2.3418040879    -1.8504617699     2.4942063068
   11      H      -0.3244550288    -0.1767644091    -0.6853971670
   12      H      -1.8904994104    -1.7527714191    -1.7734240257
   13      H      -1.1378837034    -3.0853219866    -0.9394087190
   14      H      -3.0747088754    -2.7416536085     0.2305970440
   15      H       0.8305253751    -2.6471489118     0.6250816995
   16      C       1.9115401107    -0.8132057378     0.7991123640
   17      C       2.8735738825    -1.0591703937    -0.3792863895
   18      C       2.1751889745    -0.7306688234    -1.7125885259
   19      C       0.8577602928    -1.4943105170    -1.8630691454
   20      H       1.6971060535     0.2517154133     0.8784073048
   21      H       2.3974858799    -1.0989875007     1.7287825728
   22      H       1.9781725155     0.3382826935    -1.7673864324
   23      H       2.8398510773    -0.9648855288    -2.5395935841
   24      H       0.3753270609    -1.2120005989    -2.7957647430
   25      H       1.0654583598    -2.5619465329    -1.9332227921
   26      H       3.0960300231    -2.1252819624    -0.3911525557
   27      C       4.1884763279    -0.3327373363    -0.2159535283
   28      C       5.4321247085    -1.0634739507    -0.1033893452
   29      C       4.2644510603     1.1081053001    -0.1642106554
   30      C       6.6257880760    -0.4390128492     0.0448503834
   31      H       5.3979882429    -2.1385799965    -0.1398167907
   32      C       5.4401006453     1.7643938441    -0.0168756779
   33      H       3.3564074348     1.6785003101    -0.2456701760
   34      C       6.6864484615     1.0121362045     0.0955491034
   35      H       7.5374779991    -1.0034252148     0.1263435306
   36      H       5.4922693500     2.8345106226     0.0209634417
   37      C       7.9404658725     1.7000435068     0.2526099143
   38      H       8.8317601359     1.0744653487     0.3301549066
   39      O       8.0344499227     2.9073828225     0.2997681286
   40      C      -4.6262194813    -0.8428866763     0.0092158459
   41      C      -5.5329080876     0.2459840923    -0.0817932320
   42      C      -3.2949495812    -0.6710471352     0.2530400621
   43      C      -6.9171162651     0.0543744818    -0.3371002454
   44      C      -5.0485092064     1.5551207785     0.0865672081
   45      C      -2.8243059652     0.6646633324     0.4215417436
   46      C      -7.7606030656     1.1159736273    -0.4182514105
   47      H      -7.2893893307    -0.9473529305    -0.4659231454
   48      C      -5.9520464074     2.6464102179    -0.0029683564
   49      C      -3.6642918366     1.7282711357     0.3418982335
   50      H      -1.7867797565     0.8468138388     0.6169942631
   51      C      -7.2709197284     2.4341306717    -0.2485202496
   52      H      -8.8073906412     0.9613133103    -0.6121459845
   53      H      -5.5757234506     3.6465481268     0.1269326656
   54      H      -3.2803728579     2.7253876977     0.4743723345
   55      H      -7.9508889016     3.2649226246    -0.3153481779
   56      H      -5.0209837532    -1.8363150307    -0.1213746741
 ----------------------------------------------------------------

    8   -1113.6843864881      8.54E-11 Convergence criterion met
 Total energy in the final basis set = -1113.6843864881

               CIS Excitation Energies
 ---------------------------------------------------

 Excited state   1: excitation energy (eV) =    2.5577
    Total energy for state   1:  -1113.590392590748
    Multiplicity: Triplet
    Trans. Mom.:  0.0000 X   0.0000 Y   0.0000 Z
    Strength   :  0.0000
    D( 96) --> V(  4) amplitude =  0.2877
    D( 97) --> V(  1) amplitude =  0.8962

 Excited state   2: excitation energy (eV) =    2.7700
    Total energy for state   2:  -1113.582589112562
    Multiplicity: Triplet
    Trans. Mom.:  0.0000 X   0.0000 Y   0.0000 Z
    Strength   :  0.0000
    D( 95) --> V(  5) amplitude = -0.3222
    D( 98) --> V(  3) amplitude = -0.3680
    D( 99) --> V(  2) amplitude =  0.8066

 ---------------------------------------------------

                    Orbital Energies (a.u.)
 --------------------------------------------------------------

 Alpha MOs
 -- Occupied --
-20.547 -11.322 -11.271 -11.259 -11.252 -11.247 -11.243 -11.242
-11.241 -11.238 -11.238 -11.236 -11.233 -11.233 -11.232 -11.232
-11.230 -11.230 -11.229 -11.227 -11.227 -11.226 -11.226 -11.225
-11.222 -11.221 -11.220 -11.220  -1.377  -1.178  -1.163  -1.146
 -1.118  -1.090  -1.053  -1.047  -1.036  -1.034  -1.006  -0.993
 -0.984  -0.965  -0.900  -0.862  -0.851  -0.845  -0.835  -0.820
 -0.812  -0.809  -0.780  -0.768  -0.755  -0.703  -0.702  -0.690
 -0.666  -0.663  -0.649  -0.639  -0.633  -0.622  -0.621  -0.610
 -0.604  -0.600  -0.597  -0.593  -0.591  -0.578  -0.577  -0.573
 -0.562  -0.542  -0.536  -0.529  -0.528  -0.522  -0.509  -0.506
 -0.504  -0.497  -0.495  -0.483  -0.477  -0.476  -0.470  -0.466
 -0.457  -0.443  -0.438  -0.417  -0.416  -0.413  -0.378  -0.355
 -0.316  -0.311  -0.286

          Ground-State Mulliken Net Atomic Charges

     Atom                 Charge (a.u.)
  ----------------------------------------
      1 C                    -0.208723
      2 C                    -0.208171
      3 C                    -0.128625
      4 C                    -0.127065
      5 C                    -0.189497
      6 C                    -0.165308
      7 H                     0.107134
      8 H                     0.116368
      9 H                     0.111254
     10 H                     0.126361
     11 H                     0.109286
     12 H                     0.123890
     13 H                     0.107302
     14 H                     0.128059
     15 H                     0.104854
     16 C                    -0.183988
     17 C                    -0.165415
     18 C                    -0.201952
     19 C                    -0.209343
     20 H                     0.106613
     21 H                     0.123525
     22 H                     0.111205
     23 H                     0.124997
     24 H                     0.120361
     25 H                     0.106294
     26 H                     0.125214
     27 C                     0.026664
     28 C                    -0.174518
     29 C                    -0.153865
     30 C                    -0.109070
     31 H                     0.150857
     32 C                    -0.086438
     33 H                     0.153181
     34 C                    -0.180356
     35 H                     0.164929
     36 H                     0.197235
     37 C                     0.396324
     38 H                     0.106855
     39 O                    -0.539642
     40 C                    -0.164568
     41 C                    -0.024599
     42 C                     0.021540
     43 C                    -0.127453
     44 C                    -0.040555
     45 C                    -0.153235
     46 C                    -0.157829
     47 H                     0.150743
     48 C                    -0.124380
     49 C                    -0.127915
     50 H                     0.141561
     51 C                    -0.160291
     52 H                     0.150295
     53 H                     0.151665
     54 H                     0.152086
     55 H                     0.150281
     56 H                     0.145870
  ----------------------------------------
  Sum of atomic charges =     0.000000

                    Cartesian Multipole Moments
 -----------------------------------------------------------------
    Charge (ESU x 10^10)
                 0.0000
    Dipole Moment (Debye)
         X      -2.4744      Y      -3.9096      Z      -0.3465
       Tot       4.6398
    Quadrupole Moments (Debye-Ang)
        XX    -185.2653     XY     -30.3058     YY    -166.9969
        XZ       0.4777     YZ      -0.6293     ZZ    -173.5449

 Total job time:  4050.76s(wall), 4044.88s(cpu)
        *  Thank you very much for using Q-Chem.  Have a nice day.  *
