User input:
--------------------------------------------------------------
$comment
C1,3ea
$end
$molecule
0 1
C      -1.5320660514    -0.0914342682     1.7343748722
C      -0.0432945195     0.2448479228     1.8447577153
C       0.7762153245    -0.3969125456     0.7208460622
C       0.2179734183    -0.0009987998    -0.6555967047
C      -1.2717816250    -0.3428513706    -0.7655166872
C      -2.0993340624     0.3013880957     0.3598950471
H       0.0866202713     1.3263208124     1.8097970275
H       0.3362375368    -0.0799739636     2.8107178128
H      -1.6709851965    -1.1584335362     1.8972694630
H      -2.0897982353     0.4158498876     2.5165527597
H       0.3189906644     1.0829819214    -0.7501569679
H      -1.6556990927    -0.0158285151    -1.7285366527
H      -1.3913706656    -1.4248459314    -0.7367158586
H       0.6757983869    -1.4810743937     0.8150155536
C       2.2659080177    -0.0546645604     0.8315721898
C       3.0991320641    -0.6983384095    -0.2936687419
C       2.5265390548    -0.3072035647    -1.6694181845
C       1.0377409627    -0.6436701383    -1.7783766958
H       2.3856829828     1.0273391434     0.8013907749
H       2.6480073628    -0.3800545543     1.7960107518
H       2.6654382946     0.7599796944    -1.8316682677
H       3.0828918244    -0.8138409122    -2.4532133081
H       0.6587371080    -0.3199423102    -2.7447935171
H       0.9082029149    -1.7252101973    -1.7425627868
H       2.9851714451    -1.7771885075    -0.1968587387
C       4.5741432379    -0.3944707407    -0.1697861398
C       5.5365456072    -1.4548582493     0.0365434441
C       5.0863395407     0.9529719695    -0.2512650089
C       6.8650190989    -1.2122124027     0.1507862643
H       5.1758355726    -2.4668892089     0.1000277500
C       6.4073602417     1.2311379002    -0.1413183073
H       4.3948067444     1.7621985608    -0.4044349338
C       7.3658131760     0.1495265006     0.0668825156
H       7.5617942269    -2.0168671038     0.3038045027
H       6.7837173966     2.2331021985    -0.2023714511
C       8.7712131528     0.4347343183     0.1850453030
H       9.4298656926    -0.4220730688     0.3394012178
O       9.2293803828     1.5548648078     0.1209472503
C      -5.3876101231    -1.6186430269     0.2085477903
C      -6.3401559252    -0.5848158785     0.0050247070
C      -4.0653568211    -1.3384409949     0.3187085956
C      -7.7301738159    -0.8440152872    -0.1143481079
C      -5.8794126075     0.7415406972    -0.0799915854
C      -3.5824742738    -0.0000915057     0.2347074357
C      -8.6107505835     0.1723914067    -0.3085380458
H      -8.0778243383    -1.8606950210    -0.0485730238
C      -6.8224905631     1.7832332339    -0.2832326519
C      -4.4866144978     0.9986289699     0.0398521951
C      -8.1484202174     1.5075414826    -0.3942467572
H      -9.6631303122    -0.0313878189    -0.3981300236
H      -6.4709311006     2.7985375292    -0.3483505057
H      -4.1509815999     2.0199156967    -0.0275089036
H      -8.8552086864     2.3038262343    -0.5480991591
H      -5.7312565378    -2.6367570752     0.2749704488
H      -1.9865018103     1.3797910423     0.2634330360
H      -3.3691971746    -2.1436235899     0.4725618846
$end

$rem
MEM_TOTAL	20000
MEM_STATIC	5000
JOBTYPE    freq
SYMMETRY   FALSE
EXCHANGE     	HF
CORRELATION  	none  (built-in)
BASIS       	6-31g**
cis_state_deriv   1
cis_n_roots       3
cis_singlets      false
cis_triplets      true
max_scf_cycles=100
max_cis_cycles=100
$end

--------------------------------------------------------------

   15   -1113.6930253217      6.51E-09 Convergence criterion met
 Total energy in the final basis set = -1113.6930253217
 Frequency:        17.89                  18.66                  29.63
 Force Cnst:      0.0011                 0.0009                 0.0030
 Red. Mass:       5.6494                 4.6114                 5.7691
 IR Intens:        0.312                  0.135                  1.397
 Frequency:        32.16                  55.26                  71.64
 Force Cnst:      0.0025                 0.0081                 0.0130
 Red. Mass:       4.0575                 4.4782                 4.2916
 IR Intens:        0.210                  0.514                  0.529
 Frequency:       106.50                 138.01                 144.02
 Force Cnst:      0.0343                 0.0662                 0.0306
 Red. Mass:       5.1394                 5.9029                 2.5045
 IR Intens:        0.446                  0.306                  0.035
 Frequency:       152.02                 172.93                 202.59
 Force Cnst:      0.0654                 0.0940                 0.0895
 Red. Mass:       4.8054                 5.3342                 3.7030
 IR Intens:        1.320                  1.916                  0.488
 Frequency:       207.03                 211.49                 249.46
 Force Cnst:      0.0993                 0.0878                 0.0860
 Red. Mass:       3.9336                 3.3314                 2.3467
 IR Intens:        4.203                  5.837                  1.860
 Frequency:       265.49                 273.11                 281.97
 Force Cnst:      0.1487                 0.1329                 0.2081
 Red. Mass:       3.5798                 3.0230                 4.4434
 IR Intens:        1.112                  1.484                  0.758
 Frequency:       325.34                 337.42                 372.62
 Force Cnst:      0.1553                 0.2364                 0.1552
 Red. Mass:       2.4900                 3.5235                 1.8972
 IR Intens:        2.639                  2.811                  0.069
 Frequency:       390.68                 410.63                 414.34
 Force Cnst:      0.2964                 0.3140                 0.3339
 Red. Mass:       3.2964                 3.1603                 3.3014
 IR Intens:        1.049                  1.589                  0.077
 Frequency:       437.40                 448.76                 456.87
 Force Cnst:      0.4162                 0.4074                 0.4722
 Red. Mass:       3.6927                 3.4338                 3.8399
 IR Intens:        1.488                  0.439                  6.772
 Frequency:       467.79                 499.66                 518.52
 Force Cnst:      0.4640                 0.4964                 0.4413
 Red. Mass:       3.5989                 3.3749                 2.7855
 IR Intens:        7.521                  1.716                  3.239
 Frequency:       536.01                 541.49                 549.57
 Force Cnst:      0.4454                 0.4487                 0.5173
 Red. Mass:       2.6310                 2.5971                 2.9070
 IR Intens:       13.580                  3.775                  5.097
 Frequency:       558.12                 568.77                 587.59
 Force Cnst:      0.8176                 0.6907                 1.0234
 Red. Mass:       4.4547                 3.6236                 5.0309
 IR Intens:        1.268                  6.029                  4.743
 Frequency:       601.58                 640.06                 674.64
 Force Cnst:      0.7332                 1.1582                 1.3722
 Red. Mass:       3.4385                 4.7984                 5.1173
 IR Intens:        1.179                  0.588                  3.599
 Frequency:       676.53                 687.49                 733.90
 Force Cnst:      1.3031                 1.4801                 0.8935
 Red. Mass:       4.8322                 5.3149                 2.8155
 IR Intens:        4.994                  1.588                  2.095
 Frequency:       793.11                 813.06                 815.37
 Force Cnst:      0.4674                 0.9514                 0.9735
 Red. Mass:       1.2612                 2.4428                 2.4853
 IR Intens:        6.475                 18.292                 29.258
 Frequency:       822.96                 826.85                 839.83
 Force Cnst:      0.6579                 1.1351                 1.9658
 Red. Mass:       1.6488                 2.8179                 4.7304
 IR Intens:       41.411                  7.891                  0.426
 Frequency:       841.93                 844.25                 854.96
 Force Cnst:      0.6461                 1.2801                 1.2854
 Red. Mass:       1.5470                 3.0483                 2.9847
 IR Intens:       41.127                 46.409                  1.486
 Frequency:       880.84                 907.95                 925.74
 Force Cnst:      0.9627                 1.0582                 0.7379
 Red. Mass:       2.1060                 2.1786                 1.4613
 IR Intens:        0.622                 10.559                 26.673
 Frequency:       931.52                 944.59                 966.39
 Force Cnst:      1.1496                 0.8963                 0.8260
 Red. Mass:       2.2486                 1.7049                 1.5011
 IR Intens:        2.304                  1.094                 13.213
 Frequency:       977.08                 994.91                1005.38
 Force Cnst:      1.4632                 1.3890                 1.7128
 Red. Mass:       2.6013                 2.3817                 2.8760
 IR Intens:        1.209                  9.103                 22.313
 Frequency:      1018.48                1020.08                1030.66
 Force Cnst:      1.0627                 0.9938                 0.8268
 Red. Mass:       1.7389                 1.6210                 1.3210
 IR Intens:        6.265                 17.115                  0.124
 Frequency:      1034.95                1045.57                1049.23
 Force Cnst:      1.9820                 0.8380                 1.5385
 Red. Mass:       3.1406                 1.3011                 2.3719
 IR Intens:        1.590                  0.245                 17.573
 Frequency:      1052.69                1067.89                1078.09
 Force Cnst:      1.0914                 1.5306                 1.7334
 Red. Mass:       1.6717                 2.2780                 2.5312
 IR Intens:        1.241                  6.317                  9.783
 Frequency:      1087.74                1099.83                1104.86
 Force Cnst:      0.9347                 1.7578                 0.9898
 Red. Mass:       1.3407                 2.4664                 1.3762
 IR Intens:        1.854                  0.273                  2.067
 Frequency:      1107.75                1119.54                1131.55
 Force Cnst:      1.4387                 0.9841                 2.2113
 Red. Mass:       1.9899                 1.3326                 2.9313
 IR Intens:       16.713                  0.039                  6.384
 Frequency:      1144.06                1149.36                1173.35
 Force Cnst:      1.2003                 1.0507                 2.1266
 Red. Mass:       1.5565                 1.3499                 2.6217
 IR Intens:        4.568                  0.189                  0.341
 Frequency:      1185.11                1190.11                1201.60
 Force Cnst:      1.9072                 2.0369                 1.3023
 Red. Mass:       2.3048                 2.4409                 1.5309
 IR Intens:        2.893                  0.730                  6.577
 Frequency:      1225.82                1229.71                1231.55
 Force Cnst:      1.3845                 1.6347                 1.4221
 Red. Mass:       1.5638                 1.8348                 1.5914
 IR Intens:        2.355                  0.741                  3.126
 Frequency:      1241.80                1254.47                1272.37
 Force Cnst:      1.5961                 1.8896                 1.7392
 Red. Mass:       1.7568                 2.0380                 1.8234
 IR Intens:        4.514                  0.654                  1.053
 Frequency:      1280.64                1290.43                1308.49
 Force Cnst:      1.1616                 1.2924                 2.5790
 Red. Mass:       1.2021                 1.3173                 2.5566
 IR Intens:        0.651                  0.751                  2.670
 Frequency:      1310.74                1323.67                1338.22
 Force Cnst:      2.1992                 1.7029                 2.5788
 Red. Mass:       2.1726                 1.6496                 2.4441
 IR Intens:        0.390                  2.111                  1.317
 Frequency:      1360.64                1373.32                1382.12
 Force Cnst:      1.4680                 1.6122                 1.7474
 Red. Mass:       1.3459                 1.4508                 1.5526
 IR Intens:        4.208                  0.151                  0.526
 Frequency:      1388.67                1397.43                1403.79
 Force Cnst:      2.0669                 2.5799                 2.0828
 Red. Mass:       1.8191                 2.2423                 1.7939
 IR Intens:        4.632                 15.311                  4.079
 Frequency:      1410.64                1413.95                1434.24
 Force Cnst:      1.4598                 1.5519                 1.7838
 Red. Mass:       1.2451                 1.3175                 1.4718
 IR Intens:        0.576                  3.068                  3.172
 Frequency:      1449.27                1459.33                1463.61
 Force Cnst:      1.6332                 1.6440                 1.6841
 Red. Mass:       1.3198                 1.3102                 1.3344
 IR Intens:        1.307                  2.370                  3.062
 Frequency:      1475.04                1479.42                1488.09
 Force Cnst:      1.7607                 4.1313                 1.8009
 Red. Mass:       1.3735                 3.2037                 1.3804
 IR Intens:        1.034                  0.145                  3.659
 Frequency:      1500.66                1503.78                1508.56
 Force Cnst:      2.5720                 1.9338                 2.6935
 Red. Mass:       1.9385                 1.4514                 2.0089
 IR Intens:        0.505                  5.487                  2.391
 Frequency:      1510.18                1520.01                1532.34
 Force Cnst:      1.9377                 2.0378                 2.3649
 Red. Mass:       1.4420                 1.4970                 1.7094
 IR Intens:        0.741                  3.003                  4.069
 Frequency:      1536.84                1537.81                1543.60
 Force Cnst:      2.2028                 1.9900                 2.3339
 Red. Mass:       1.5829                 1.4283                 1.6625
 IR Intens:        2.818                  4.672                  0.836
 Frequency:      1551.35                1561.75                1576.44
 Force Cnst:      2.5407                 2.3779                 3.3868
 Red. Mass:       1.7918                 1.6547                 2.3130
 IR Intens:        2.109                  8.311                 10.037
 Frequency:      1600.40                1612.48                1617.66
 Force Cnst:      3.2828                 1.6745                 1.6996
 Red. Mass:       2.1754                 1.0931                 1.1023
 IR Intens:        3.151                  1.520                  0.029
 Frequency:      1619.40                1625.31                1628.85
 Force Cnst:      1.6947                 1.7182                 1.9027
 Red. Mass:       1.0968                 1.1039                 1.2172
 IR Intens:        0.003                  9.994                  1.572
 Frequency:      1631.86                1633.54                1636.86
 Force Cnst:      3.1711                 2.6294                 2.3320
 Red. Mass:       2.0212                 1.6724                 1.4773
 IR Intens:        1.384                  1.082                  0.560
 Frequency:      1675.35                1712.48                1778.82
 Force Cnst:      4.9862                 9.7632                12.2221
 Red. Mass:       3.0152                 5.6506                 6.5559
 IR Intens:       18.054                123.103                  0.622
 Frequency:      1809.27                1846.98                3123.87
 Force Cnst:      9.8544                12.1423                 6.2199
 Red. Mass:       5.1094                 6.0413                 1.0818
 IR Intens:       11.477                 11.880                  0.105
 Frequency:      3133.73                3160.46                3162.09
 Force Cnst:      6.2749                 6.2844                 6.2738
 Red. Mass:       1.0845                 1.0679                 1.0650
 IR Intens:       14.830                  0.370                 23.311
 Frequency:      3165.98                3171.16                3173.15
 Force Cnst:      6.3865                 6.4061                 6.3055
 Red. Mass:       1.0814                 1.0812                 1.0629
 IR Intens:        5.810                  4.612                 15.166
 Frequency:      3174.64                3177.93                3179.48
 Force Cnst:      6.3347                 6.4549                 6.3600
 Red. Mass:       1.0668                 1.0848                 1.0678
 IR Intens:       55.982                 95.610                 30.221
 Frequency:      3181.59                3206.80                3208.02
 Force Cnst:      6.3703                 6.6525                 6.6515
 Red. Mass:       1.0681                 1.0980                 1.0970
 IR Intens:      106.358                 17.001                 14.776
 Frequency:      3216.95                3218.74                3224.39
 Force Cnst:      6.7129                 6.7218                 6.7586
 Red. Mass:       1.1010                 1.1012                 1.1033
 IR Intens:       87.825                 47.911                 27.093
 Frequency:      3227.88                3332.51                3334.89
 Force Cnst:      6.7740                 7.1277                 7.1355
 Red. Mass:       1.1035                 1.0893                 1.0890
 IR Intens:      135.707                  5.210                  3.286
 Frequency:      3336.79                3340.97                3342.18
 Force Cnst:      7.1372                 7.1459                 7.1712
 Red. Mass:       1.0880                 1.0866                 1.0896
 IR Intens:       15.341                  7.079                  0.234
 Frequency:      3355.48                3355.86                3361.75
 Force Cnst:      7.2730                 7.2259                 7.3000
 Red. Mass:       1.0964                 1.0890                 1.0963
 IR Intens:       40.119                 16.436                 38.518
 Frequency:      3362.45                3369.08                3403.91
 Force Cnst:      7.2940                 7.3503                 7.4587
 Red. Mass:       1.0950                 1.0991                 1.0926
 IR Intens:       16.959                 37.190                  1.452

 STANDARD THERMODYNAMIC QUANTITIES AT   298.15 K  AND     1.00 ATM

   This Molecule has  0 Imaginary Frequencies
   Zero point vibrational energy:      319.720 kcal/mol

   Atom    1 Element C  Has Mass   12.00000
   Atom    2 Element C  Has Mass   12.00000
   Atom    3 Element C  Has Mass   12.00000
   Atom    4 Element C  Has Mass   12.00000
   Atom    5 Element C  Has Mass   12.00000
   Atom    6 Element C  Has Mass   12.00000
   Atom    7 Element H  Has Mass    1.00783
   Atom    8 Element H  Has Mass    1.00783
   Atom    9 Element H  Has Mass    1.00783
   Atom   10 Element H  Has Mass    1.00783
   Atom   11 Element H  Has Mass    1.00783
   Atom   12 Element H  Has Mass    1.00783
   Atom   13 Element H  Has Mass    1.00783
   Atom   14 Element H  Has Mass    1.00783
   Atom   15 Element C  Has Mass   12.00000
   Atom   16 Element C  Has Mass   12.00000
   Atom   17 Element C  Has Mass   12.00000
   Atom   18 Element C  Has Mass   12.00000
   Atom   19 Element H  Has Mass    1.00783
   Atom   20 Element H  Has Mass    1.00783
   Atom   21 Element H  Has Mass    1.00783
   Atom   22 Element H  Has Mass    1.00783
   Atom   23 Element H  Has Mass    1.00783
   Atom   24 Element H  Has Mass    1.00783
   Atom   25 Element H  Has Mass    1.00783
   Atom   26 Element C  Has Mass   12.00000
   Atom   27 Element C  Has Mass   12.00000
   Atom   28 Element C  Has Mass   12.00000
   Atom   29 Element C  Has Mass   12.00000
   Atom   30 Element H  Has Mass    1.00783
   Atom   31 Element C  Has Mass   12.00000
   Atom   32 Element H  Has Mass    1.00783
   Atom   33 Element C  Has Mass   12.00000
   Atom   34 Element H  Has Mass    1.00783
   Atom   35 Element H  Has Mass    1.00783
   Atom   36 Element C  Has Mass   12.00000
   Atom   37 Element H  Has Mass    1.00783
   Atom   38 Element O  Has Mass   15.99491
   Atom   39 Element C  Has Mass   12.00000
   Atom   40 Element C  Has Mass   12.00000
   Atom   41 Element C  Has Mass   12.00000
   Atom   42 Element C  Has Mass   12.00000
   Atom   43 Element C  Has Mass   12.00000
   Atom   44 Element C  Has Mass   12.00000
   Atom   45 Element C  Has Mass   12.00000
   Atom   46 Element H  Has Mass    1.00783
   Atom   47 Element C  Has Mass   12.00000
   Atom   48 Element C  Has Mass   12.00000
   Atom   49 Element C  Has Mass   12.00000
   Atom   50 Element H  Has Mass    1.00783
   Atom   51 Element H  Has Mass    1.00783
   Atom   52 Element H  Has Mass    1.00783
   Atom   53 Element H  Has Mass    1.00783
   Atom   54 Element H  Has Mass    1.00783
   Atom   55 Element H  Has Mass    1.00783
   Atom   56 Element H  Has Mass    1.00783
   Molecular Mass:   368.214150 amu
   Principal axes and moments of inertia in atomic units:
                             1           2           3
    Eigenvalues --     2109.75550 39203.31337 39612.64866
          X               1.00000    -0.00235    -0.00020
          Y               0.00235     0.99998    -0.00576
          Z               0.00021     0.00576     0.99998
   Rotational Symmetry Number is   1
   The Molecule is an Asymmetric Top
   Translational Enthalpy:        0.889 kcal/mol
   Rotational Enthalpy:           0.889 kcal/mol
   Vibrational Enthalpy:        331.799 kcal/mol
   gas constant (RT):             0.592 kcal/mol
   Translational Entropy:        43.603  cal/mol.K
   Rotational Entropy:           36.436  cal/mol.K
   Vibrational Entropy:          81.535  cal/mol.K

   Total Enthalpy:              334.169 kcal/mol
   Total Entropy:               161.574  cal/mol.K

 Total job time:  58778.76s(wall), 55971.87s(cpu)
        *  Thank you very much for using Q-Chem.  Have a nice day.  *

User input:
--------------------------------------------------------------
$molecule
read
$end

$rem
scf_convergence=10
cis_convergence=10
thresh=12
max_scf_cycles=100
max_cis_cycles=100
MEM_TOTAL	20000
MEM_STATIC	5000
JOBTYPE    force
SYMMETRY   FALSE
EXCHANGE     	HF
CORRELATION  	none  (built-in)
BASIS       	6-31g**
cis_state_deriv   1
cis_n_roots       3
cis_singlets      false
cis_triplets      true
scf_guess read
$end

--------------------------------------------------------------

    6   -1113.6930253050      4.72E-11 Convergence criterion met
 Total energy in the final basis set = -1113.6930253050
 Total job time:  7202.13s(wall), 7184.13s(cpu)

User input:
--------------------------------------------------------------
$molecule
read
$end

$rem
scf_convergence=10
cis_convergence=10
thresh=12
max_scf_cycles=100
max_cis_cycles=100
MEM_TOTAL	20000
MEM_STATIC	5000
JOBTYPE    Force
SYMMETRY   FALSE
EXCHANGE     	HF
CORRELATION  	none  (built-in)
BASIS       	6-31g**
cis_state_deriv   2
cis_n_roots       3
cis_singlets      false
cis_triplets      true
scf_guess read
$end

--------------------------------------------------------------

    2   -1113.6930253046      2.50E-11 Convergence criterion met
 Total energy in the final basis set = -1113.6930253046
        *  Thank you very much for using Q-Chem.  Have a nice day.  *

             Standard Nuclear Orientation (Angstroms)
    I     Atom           X                Y                Z
 ----------------------------------------------------------------
    1      C      -1.5320660514    -0.0914342682     1.7343748722
    2      C      -0.0432945195     0.2448479228     1.8447577153
    3      C       0.7762153245    -0.3969125456     0.7208460622
    4      C       0.2179734183    -0.0009987998    -0.6555967047
    5      C      -1.2717816250    -0.3428513706    -0.7655166872
    6      C      -2.0993340624     0.3013880957     0.3598950471
    7      H       0.0866202713     1.3263208124     1.8097970275
    8      H       0.3362375368    -0.0799739636     2.8107178128
    9      H      -1.6709851965    -1.1584335362     1.8972694630
   10      H      -2.0897982353     0.4158498876     2.5165527597
   11      H       0.3189906644     1.0829819214    -0.7501569679
   12      H      -1.6556990927    -0.0158285151    -1.7285366527
   13      H      -1.3913706656    -1.4248459314    -0.7367158586
   14      H       0.6757983869    -1.4810743937     0.8150155536
   15      C       2.2659080177    -0.0546645604     0.8315721898
   16      C       3.0991320641    -0.6983384095    -0.2936687419
   17      C       2.5265390548    -0.3072035647    -1.6694181845
   18      C       1.0377409627    -0.6436701383    -1.7783766958
   19      H       2.3856829828     1.0273391434     0.8013907749
   20      H       2.6480073628    -0.3800545543     1.7960107518
   21      H       2.6654382946     0.7599796944    -1.8316682677
   22      H       3.0828918244    -0.8138409122    -2.4532133081
   23      H       0.6587371080    -0.3199423102    -2.7447935171
   24      H       0.9082029149    -1.7252101973    -1.7425627868
   25      H       2.9851714451    -1.7771885075    -0.1968587387
   26      C       4.5741432379    -0.3944707407    -0.1697861398
   27      C       5.5365456072    -1.4548582493     0.0365434441
   28      C       5.0863395407     0.9529719695    -0.2512650089
   29      C       6.8650190989    -1.2122124027     0.1507862643
   30      H       5.1758355726    -2.4668892089     0.1000277500
   31      C       6.4073602417     1.2311379002    -0.1413183073
   32      H       4.3948067444     1.7621985608    -0.4044349338
   33      C       7.3658131760     0.1495265006     0.0668825156
   34      H       7.5617942269    -2.0168671038     0.3038045027
   35      H       6.7837173966     2.2331021985    -0.2023714511
   36      C       8.7712131528     0.4347343183     0.1850453030
   37      H       9.4298656926    -0.4220730688     0.3394012178
   38      O       9.2293803828     1.5548648078     0.1209472503
   39      C      -5.3876101231    -1.6186430269     0.2085477903
   40      C      -6.3401559252    -0.5848158785     0.0050247070
   41      C      -4.0653568211    -1.3384409949     0.3187085956
   42      C      -7.7301738159    -0.8440152872    -0.1143481079
   43      C      -5.8794126075     0.7415406972    -0.0799915854
   44      C      -3.5824742738    -0.0000915057     0.2347074357
   45      C      -8.6107505835     0.1723914067    -0.3085380458
   46      H      -8.0778243383    -1.8606950210    -0.0485730238
   47      C      -6.8224905631     1.7832332339    -0.2832326519
   48      C      -4.4866144978     0.9986289699     0.0398521951
   49      C      -8.1484202174     1.5075414826    -0.3942467572
   50      H      -9.6631303122    -0.0313878189    -0.3981300236
   51      H      -6.4709311006     2.7985375292    -0.3483505057
   52      H      -4.1509815999     2.0199156967    -0.0275089036
   53      H      -8.8552086864     2.3038262343    -0.5480991591
   54      H      -5.7312565378    -2.6367570752     0.2749704488
   55      H      -1.9865018103     1.3797910423     0.2634330360
   56      H      -3.3691971746    -2.1436235899     0.4725618846
 ----------------------------------------------------------------

    2   -1113.6930253046      2.04E-11 Convergence criterion met
 Total energy in the final basis set = -1113.6930253046

               CIS Excitation Energies
 ---------------------------------------------------

 Excited state   1: excitation energy (eV) =    2.5576
    Total energy for state   1:  -1113.599033715010
    Multiplicity: Triplet
    Trans. Mom.:  0.0000 X   0.0000 Y   0.0000 Z
    Strength   :  0.0000
    D( 96) --> V(  4) amplitude =  0.2878
    D( 97) --> V(  1) amplitude =  0.8943

 Excited state   2: excitation energy (eV) =    2.7870
    Total energy for state   2:  -1113.590606646418
    Multiplicity: Triplet
    Trans. Mom.:  0.0000 X   0.0000 Y   0.0000 Z
    Strength   :  0.0000
    D( 95) --> V(  5) amplitude =  0.3248
    D( 98) --> V(  3) amplitude = -0.3746
    D( 99) --> V(  2) amplitude =  0.8034

 ---------------------------------------------------

                    Orbital Energies (a.u.)
 --------------------------------------------------------------

 Alpha MOs
 -- Occupied --
-20.547 -11.322 -11.272 -11.259 -11.252 -11.248 -11.243 -11.242
-11.241 -11.238 -11.236 -11.236 -11.232 -11.232 -11.232 -11.231
-11.230 -11.229 -11.229 -11.227 -11.227 -11.227 -11.226 -11.226
-11.222 -11.221 -11.220 -11.220  -1.377  -1.178  -1.163  -1.147
 -1.120  -1.091  -1.053  -1.047  -1.037  -1.034  -1.007  -0.992
 -0.983  -0.965  -0.899  -0.862  -0.848  -0.845  -0.835  -0.820
 -0.812  -0.805  -0.780  -0.767  -0.765  -0.703  -0.700  -0.689
 -0.672  -0.666  -0.650  -0.637  -0.630  -0.622  -0.620  -0.612
 -0.603  -0.601  -0.597  -0.592  -0.588  -0.582  -0.577  -0.565
 -0.562  -0.545  -0.539  -0.531  -0.526  -0.521  -0.510  -0.506
 -0.505  -0.496  -0.492  -0.483  -0.477  -0.475  -0.471  -0.467
 -0.457  -0.454  -0.437  -0.418  -0.416  -0.413  -0.378  -0.355
 -0.316  -0.310  -0.286

          Ground-State Mulliken Net Atomic Charges

     Atom                 Charge (a.u.)
  ----------------------------------------
      1 C                    -0.201252
      2 C                    -0.208134
      3 C                    -0.127783
      4 C                    -0.127486
      5 C                    -0.184147
      6 C                    -0.159466
      7 H                     0.107324
      8 H                     0.116274
      9 H                     0.106733
     10 H                     0.124736
     11 H                     0.105903
     12 H                     0.122817
     13 H                     0.104665
     14 H                     0.105157
     15 C                    -0.184685
     16 C                    -0.165661
     17 C                    -0.201980
     18 C                    -0.208593
     19 H                     0.109011
     20 H                     0.123458
     21 H                     0.111171
     22 H                     0.125103
     23 H                     0.119376
     24 H                     0.107126
     25 H                     0.125058
     26 C                     0.026593
     27 C                    -0.174495
     28 C                    -0.153987
     29 C                    -0.109095
     30 H                     0.150827
     31 C                    -0.086466
     32 H                     0.153521
     33 C                    -0.180341
     34 H                     0.164944
     35 H                     0.197274
     36 C                     0.396317
     37 H                     0.106868
     38 O                    -0.539612
     39 C                    -0.125769
     40 C                    -0.041199
     41 C                    -0.149105
     42 C                    -0.125442
     43 C                    -0.026884
     44 C                     0.010688
     45 C                    -0.160275
     46 H                     0.151015
     47 C                    -0.127561
     48 C                    -0.160165
     49 C                    -0.157933
     50 H                     0.149865
     51 H                     0.150474
     52 H                     0.146726
     53 H                     0.150083
     54 H                     0.151818
     55 H                     0.119912
     56 H                     0.146682
  ----------------------------------------
  Sum of atomic charges =     0.000000

                    Cartesian Multipole Moments
 -----------------------------------------------------------------
    Charge (ESU x 10^10)
                 0.0000
    Dipole Moment (Debye)
         X      -3.3459      Y      -2.7874      Z      -0.0352
       Tot       4.3550
    Quadrupole Moments (Debye-Ang)
        XX    -207.3211     XY     -26.2924     YY    -158.1631
        XZ       1.7891     YZ      -2.6769     ZZ    -173.5103

 Total job time:  3434.52s(wall), 3426.67s(cpu)
        *  Thank you very much for using Q-Chem.  Have a nice day.  *
