User input:
--------------------------------------------------------------
$comment
C1,3ea
$end
$molecule
0 1
C       1.4381254924     0.2616305172    -0.8573695076
C       1.4411086480     1.5930272440    -1.6264928767
C       0.0189055953     2.1030737871    -1.8673345916
C      -0.7731906263     2.2368612579    -0.5634693589
C      -0.7813442117     0.9115058447     0.2138575434
C       0.6447999154     0.4028992266     0.4527293275
C      -2.2040277442     2.7236846395    -0.8069523152
C      -3.0132652421     2.8247642767     0.4919997924
C      -3.0077788160     1.5403690605     1.3405594475
C      -1.5475697649     1.0674230487     1.5308008630
C      -3.9263832282     0.4307505631     0.8602432255
C       2.8381078085    -0.2899431490    -0.6329957788
C      -4.0831189181    -0.7460362449     1.7249851406
C       3.7762956211     0.3785897091     0.0974848121
C       3.1961854940    -1.5447309454    -1.1964937339
C       5.0789632917    -0.1444808639     0.3020835094
C       4.4343598124    -2.0745684409    -1.0201775172
C      -4.7294650803     0.4680884357    -0.3141825015
C       5.4171162134    -1.3888378355    -0.2630949700
C       6.0580516191     0.5509653573     1.0629523786
C       7.2977149043     0.0279037579     1.2436026803
C      -5.5578265517    -0.5559916039    -0.6655802678
C       6.7220450431    -1.9114768682    -0.0573961514
C       7.6365243159    -1.2247809499     0.6740746345
C      -4.8969441958    -1.7789723528     1.4063770114
C      -5.6554595243    -1.7486317096     0.1844302786
C      -6.5056580907    -2.8477371518    -0.1930577367
O      -7.1667509342    -2.8566046573    -1.2073294198
H       0.9067041578    -0.4606657345    -1.4747983552
H       1.9600663223     1.4674446948    -2.5726515064
H       2.0005296533     2.3372575391    -1.0633903543
H      -0.5027042320     1.4167623105    -2.5340655547
H       0.0533490093     3.0626187809    -2.3782778421
H      -0.2662485502     2.9779273100     0.0596767597
H      -1.3024957703     0.1718201607    -0.3967025460
H       1.1638390983     1.0901493330     1.1191055023
H       0.6147091630    -0.5567276872     0.9629054091
H      -2.1839774934     3.6982501015    -1.2895361225
H      -2.6854448685     2.0459296849    -1.5069948242
H      -2.5780283134     3.6144267154     1.1009062647
H      -4.0319021721     3.1378445244     0.2823151589
H      -3.3729644589     1.8175857196     2.3315579331
H      -1.5188368123     0.1325328503     2.0827385861
H      -1.0332241965     1.8007914679     2.1506619218
H      -3.5377399889    -0.7751115333     2.6513834654
H       3.5421432823     1.3317450328     0.5397899077
H       2.4659327108    -2.0832113435    -1.7755868468
H       4.6821174562    -3.0266856977    -1.4572399864
H      -4.6917898194     1.3297559847    -0.9521619957
H       5.8010956300     1.5026167494     1.4954592182
H       8.0313775252     0.5623708217     1.8210143815
H      -6.1554228948    -0.5203196796    -1.5544112957
H       6.9752536046    -2.8632343131    -0.4919379035
H       8.6227313578    -1.6266402359     0.8255808245
H      -4.9907226423    -2.6262291829     2.0626560868
H      -6.5319699658    -3.6982587771     0.4911390471
$end

$rem
MEM_TOTAL	20000
MEM_STATIC	5000
JOBTYPE    freq
SYMMETRY   FALSE
EXCHANGE     	HF
CORRELATION  	none  (built-in)
BASIS       	6-31g**
cis_state_deriv   1
cis_n_roots       3
cis_singlets      false
cis_triplets      true
max_scf_cycles=100
max_cis_cycles=100
$end

--------------------------------------------------------------

   15   -1113.6852241535      7.49E-09 Convergence criterion met
 Total energy in the final basis set = -1113.6852241535
 Frequency:        14.76                  17.34                  33.12
 Force Cnst:      0.0005                 0.0013                 0.0029
 Red. Mass:       4.2765                 7.1572                 4.5056
 IR Intens:        0.067                  0.692                  0.032
 Frequency:        37.98                  48.19                  80.39
 Force Cnst:      0.0039                 0.0063                 0.0196
 Red. Mass:       4.5526                 4.6072                 5.1493
 IR Intens:        0.811                  1.016                  0.326
 Frequency:        98.02                 147.37                 152.52
 Force Cnst:      0.0201                 0.0580                 0.0666
 Red. Mass:       3.5576                 4.5296                 4.8565
 IR Intens:        0.959                  1.185                  1.293
 Frequency:       163.89                 195.14                 200.30
 Force Cnst:      0.0623                 0.0789                 0.0861
 Red. Mass:       3.9370                 3.5156                 3.6415
 IR Intens:        1.248                  3.542                  0.660
 Frequency:       209.15                 233.70                 245.69
 Force Cnst:      0.1123                 0.1346                 0.1014
 Red. Mass:       4.3569                 4.1835                 2.8514
 IR Intens:        2.306                  3.587                  2.960
 Frequency:       272.36                 282.65                 292.25
 Force Cnst:      0.1905                 0.1169                 0.1814
 Red. Mass:       4.3581                 2.4835                 3.6052
 IR Intens:        1.707                  0.811                  0.641
 Frequency:       339.52                 368.88                 382.37
 Force Cnst:      0.1649                 0.1779                 0.2739
 Red. Mass:       2.4274                 2.2186                 3.1796
 IR Intens:        1.998                  0.609                  0.742
 Frequency:       393.89                 411.94                 420.47
 Force Cnst:      0.2496                 0.3244                 0.3259
 Red. Mass:       2.7301                 3.2448                 3.1289
 IR Intens:        4.652                  2.656                  3.929
 Frequency:       432.09                 450.67                 455.04
 Force Cnst:      0.3844                 0.3896                 0.4256
 Red. Mass:       3.4948                 3.2560                 3.4883
 IR Intens:        5.340                  0.169                  1.434
 Frequency:       487.20                 517.51                 521.11
 Force Cnst:      0.4738                 0.5358                 0.4051
 Red. Mass:       3.3877                 3.3955                 2.5322
 IR Intens:        1.920                  3.085                  0.247
 Frequency:       527.76                 535.60                 549.78
 Force Cnst:      0.5830                 0.4400                 0.4916
 Red. Mass:       3.5523                 2.6032                 2.7606
 IR Intens:        4.151                 12.991                  1.841
 Frequency:       562.78                 568.88                 596.84
 Force Cnst:      1.2323                 0.8707                 0.7350
 Red. Mass:       6.6037                 4.5663                 3.5020
 IR Intens:       13.287                  6.071                  1.452
 Frequency:       610.48                 622.50                 653.55
 Force Cnst:      0.9434                 0.8884                 0.8648
 Red. Mass:       4.2962                 3.8910                 3.4364
 IR Intens:        0.929                  0.132                  1.533
 Frequency:       682.58                 703.48                 733.09
 Force Cnst:      1.7913                 1.3310                 0.9061
 Red. Mass:       6.5255                 4.5646                 2.8617
 IR Intens:        5.758                  5.664                  1.456
 Frequency:       782.13                 791.45                 812.63
 Force Cnst:      0.6453                 0.6071                 0.8574
 Red. Mass:       1.7905                 1.6449                 2.2037
 IR Intens:       19.998                  3.951                 11.727
 Frequency:       818.49                 827.20                 839.32
 Force Cnst:      1.2147                 0.7434                 1.5678
 Red. Mass:       3.0773                 1.8439                 3.7773
 IR Intens:        2.471                 44.926                 64.813
 Frequency:       840.10                 841.49                 855.15
 Force Cnst:      1.9710                 0.5636                 1.3027
 Red. Mass:       4.7399                 1.3510                 3.0234
 IR Intens:        3.032                 33.216                  1.413
 Frequency:       891.53                 915.64                 923.19
 Force Cnst:      1.0734                 0.8552                 0.8866
 Red. Mass:       2.2920                 1.7313                 1.7655
 IR Intens:        7.362                  3.831                  9.732
 Frequency:       928.04                 950.11                 963.49
 Force Cnst:      0.8457                 1.2476                 0.9173
 Red. Mass:       1.6666                 2.3457                 1.6772
 IR Intens:       21.993                  0.241                 11.454
 Frequency:       972.09                 984.76                 998.10
 Force Cnst:      0.9869                 2.2079                 1.8804
 Red. Mass:       1.7725                 3.8643                 3.2037
 IR Intens:        3.906                  5.767                 25.017
 Frequency:      1020.32                1030.05                1033.48
 Force Cnst:      0.9712                 0.9946                 1.0561
 Red. Mass:       1.5834                 1.5910                 1.6782
 IR Intens:        6.608                  4.653                  6.741
 Frequency:      1036.36                1037.31                1052.57
 Force Cnst:      1.4100                 0.9115                 1.5943
 Red. Mass:       2.2282                 1.4378                 2.4424
 IR Intens:        1.656                  5.147                  4.725
 Frequency:      1054.64                1057.44                1074.74
 Force Cnst:      1.2555                 1.2650                 1.3516
 Red. Mass:       1.9159                 1.9201                 1.9861
 IR Intens:        5.477                 12.164                  5.277
 Frequency:      1082.31                1088.18                1096.95
 Force Cnst:      1.3653                 0.9702                 1.7704
 Red. Mass:       1.9782                 1.3906                 2.4972
 IR Intens:        9.009                  1.317                  1.076
 Frequency:      1102.31                1119.30                1124.29
 Force Cnst:      0.9712                 0.9841                 1.6167
 Red. Mass:       1.3566                 1.3332                 2.1708
 IR Intens:        1.778                  0.039                  3.132
 Frequency:      1148.57                1162.72                1176.87
 Force Cnst:      1.1481                 1.3891                 1.8975
 Red. Mass:       1.4772                 1.7439                 2.3253
 IR Intens:        1.084                  0.772                  1.953
 Frequency:      1180.46                1190.19                1204.19
 Force Cnst:      2.0370                 1.6361                 1.7996
 Red. Mass:       2.4811                 1.9603                 2.1064
 IR Intens:        0.042                  0.344                  1.099
 Frequency:      1216.37                1223.91                1238.96
 Force Cnst:      1.6163                 1.8447                 1.5829
 Red. Mass:       1.8541                 2.0901                 1.7502
 IR Intens:        0.625                  3.977                  1.617
 Frequency:      1246.40                1257.33                1266.55
 Force Cnst:      1.3614                 1.4663                 1.5759
 Red. Mass:       1.4873                 1.5742                 1.6674
 IR Intens:        1.810                  3.654                  3.926
 Frequency:      1282.98                1287.89                1294.59
 Force Cnst:      1.1325                 1.2109                 1.3535
 Red. Mass:       1.1677                 1.2391                 1.3707
 IR Intens:        0.380                  4.603                  0.341
 Frequency:      1307.47                1311.21                1327.74
 Force Cnst:      2.1099                 3.1653                 1.8490
 Red. Mass:       2.0948                 3.1248                 1.7802
 IR Intens:        4.334                  4.562                  1.956
 Frequency:      1346.03                1369.82                1381.10
 Force Cnst:      1.5887                 1.7239                 1.4779
 Red. Mass:       1.4883                 1.5593                 1.3150
 IR Intens:        1.006                  0.519                  4.965
 Frequency:      1388.26                1398.21                1408.29
 Force Cnst:      2.0140                 1.7806                 1.4784
 Red. Mass:       1.7736                 1.5459                 1.2652
 IR Intens:        1.947                  5.210                  6.417
 Frequency:      1415.97                1431.61                1442.55
 Force Cnst:      3.6073                 1.6641                 1.8796
 Red. Mass:       3.0537                 1.3781                 1.5330
 IR Intens:        8.575                  4.240                  0.651
 Frequency:      1447.58                1461.25                1470.17
 Force Cnst:      1.6175                 1.6127                 1.8369
 Red. Mass:       1.3102                 1.2819                 1.4425
 IR Intens:        1.782                  0.923                  1.903
 Frequency:      1482.45                1488.31                1491.65
 Force Cnst:      2.9815                 1.8176                 6.1009
 Red. Mass:       2.3026                 1.3927                 4.6538
 IR Intens:        2.339                 15.451                  1.528
 Frequency:      1494.44                1501.68                1507.84
 Force Cnst:      2.1179                 1.9957                 1.9602
 Red. Mass:       1.6095                 1.5021                 1.4633
 IR Intens:        4.996                  3.204                  0.775
 Frequency:      1510.16                1520.06                1526.13
 Force Cnst:      1.9955                 2.0150                 2.0659
 Red. Mass:       1.4851                 1.4801                 1.5055
 IR Intens:        1.097                  8.587                  9.283
 Frequency:      1533.86                1541.73                1543.55
 Force Cnst:      2.5763                 2.2155                 1.9446
 Red. Mass:       1.8586                 1.5820                 1.3853
 IR Intens:        6.854                  1.195                 10.936
 Frequency:      1548.58                1554.33                1586.09
 Force Cnst:      2.2409                 2.4918                 3.1364
 Red. Mass:       1.5860                 1.7506                 2.1160
 IR Intens:        2.621                  2.881                  4.733
 Frequency:      1598.39                1613.54                1619.36
 Force Cnst:      3.3458                 1.6802                 1.6966
 Red. Mass:       2.2227                 1.0953                 1.0981
 IR Intens:        1.041                  1.508                  0.674
 Frequency:      1621.13                1627.22                1630.59
 Force Cnst:      1.7050                 1.7396                 2.2087
 Red. Mass:       1.1011                 1.1151                 1.4099
 IR Intens:        1.715                 10.797                  0.383
 Frequency:      1631.03                1633.79                1638.44
 Force Cnst:      4.5616                 2.3443                 1.7477
 Red. Mass:       2.9103                 1.4906                 1.1050
 IR Intens:        5.346                  0.528                  6.384
 Frequency:      1676.42                1725.11                1777.14
 Force Cnst:      5.1298                11.2607                12.0096
 Red. Mass:       3.0980                 6.4222                 6.4541
 IR Intens:       13.807                140.592                  0.634
 Frequency:      1807.74                1844.96                3123.12
 Force Cnst:      9.7833                11.9455                 6.2217
 Red. Mass:       5.0812                 5.9564                 1.0826
 IR Intens:       14.483                 11.253                 38.180
 Frequency:      3126.49                3147.07                3162.56
 Force Cnst:      6.2359                 6.3223                 6.2849
 Red. Mass:       1.0828                 1.0835                 1.0665
 IR Intens:        5.297                  7.123                 17.762
 Frequency:      3167.17                3170.56                3175.76
 Force Cnst:      6.3120                 6.3921                 6.3324
 Red. Mass:       1.0680                 1.0792                 1.0657
 IR Intens:        9.373                  2.103                 23.530
 Frequency:      3176.01                3179.72                3182.42
 Force Cnst:      6.4518                 6.3643                 6.3607
 Red. Mass:       1.0856                 1.0684                 1.0660
 IR Intens:       87.220                 40.776                112.495
 Frequency:      3187.41                3206.98                3213.00
 Force Cnst:      6.3948                 6.6397                 6.6984
 Red. Mass:       1.0683                 1.0957                 1.1013
 IR Intens:       37.516                 38.348                  4.965
 Frequency:      3219.12                3223.33                3225.82
 Force Cnst:      6.6982                 6.7288                 6.7635
 Red. Mass:       1.0971                 1.0992                 1.1032
 IR Intens:       76.621                 34.991                 29.521
 Frequency:      3230.03                3332.93                3334.28
 Force Cnst:      6.7748                 7.1165                 7.1203
 Red. Mass:       1.1021                 1.0873                 1.0870
 IR Intens:      187.421                  4.008                  3.069
 Frequency:      3339.19                3343.17                3344.27
 Force Cnst:      7.1620                 7.1811                 7.1606
 Red. Mass:       1.0902                 1.0905                 1.0867
 IR Intens:        7.679                  9.007                  3.717
 Frequency:      3354.67                3356.31                3365.33
 Force Cnst:      7.2719                 7.2799                 7.3054
 Red. Mass:       1.0967                 1.0969                 1.0948
 IR Intens:       10.384                 67.360                 20.687
 Frequency:      3368.98                3386.01                3409.26
 Force Cnst:      7.3500                 7.3449                 7.4858
 Red. Mass:       1.0991                 1.0873                 1.0931
 IR Intens:       37.841                  5.995                  3.179

 STANDARD THERMODYNAMIC QUANTITIES AT   298.15 K  AND     1.00 ATM

   This Molecule has  0 Imaginary Frequencies
   Zero point vibrational energy:      319.952 kcal/mol

   Atom    1 Element C  Has Mass   12.00000
   Atom    2 Element C  Has Mass   12.00000
   Atom    3 Element C  Has Mass   12.00000
   Atom    4 Element C  Has Mass   12.00000
   Atom    5 Element C  Has Mass   12.00000
   Atom    6 Element C  Has Mass   12.00000
   Atom    7 Element C  Has Mass   12.00000
   Atom    8 Element C  Has Mass   12.00000
   Atom    9 Element C  Has Mass   12.00000
   Atom   10 Element C  Has Mass   12.00000
   Atom   11 Element C  Has Mass   12.00000
   Atom   12 Element C  Has Mass   12.00000
   Atom   13 Element C  Has Mass   12.00000
   Atom   14 Element C  Has Mass   12.00000
   Atom   15 Element C  Has Mass   12.00000
   Atom   16 Element C  Has Mass   12.00000
   Atom   17 Element C  Has Mass   12.00000
   Atom   18 Element C  Has Mass   12.00000
   Atom   19 Element C  Has Mass   12.00000
   Atom   20 Element C  Has Mass   12.00000
   Atom   21 Element C  Has Mass   12.00000
   Atom   22 Element C  Has Mass   12.00000
   Atom   23 Element C  Has Mass   12.00000
   Atom   24 Element C  Has Mass   12.00000
   Atom   25 Element C  Has Mass   12.00000
   Atom   26 Element C  Has Mass   12.00000
   Atom   27 Element C  Has Mass   12.00000
   Atom   28 Element O  Has Mass   15.99491
   Atom   29 Element H  Has Mass    1.00783
   Atom   30 Element H  Has Mass    1.00783
   Atom   31 Element H  Has Mass    1.00783
   Atom   32 Element H  Has Mass    1.00783
   Atom   33 Element H  Has Mass    1.00783
   Atom   34 Element H  Has Mass    1.00783
   Atom   35 Element H  Has Mass    1.00783
   Atom   36 Element H  Has Mass    1.00783
   Atom   37 Element H  Has Mass    1.00783
   Atom   38 Element H  Has Mass    1.00783
   Atom   39 Element H  Has Mass    1.00783
   Atom   40 Element H  Has Mass    1.00783
   Atom   41 Element H  Has Mass    1.00783
   Atom   42 Element H  Has Mass    1.00783
   Atom   43 Element H  Has Mass    1.00783
   Atom   44 Element H  Has Mass    1.00783
   Atom   45 Element H  Has Mass    1.00783
   Atom   46 Element H  Has Mass    1.00783
   Atom   47 Element H  Has Mass    1.00783
   Atom   48 Element H  Has Mass    1.00783
   Atom   49 Element H  Has Mass    1.00783
   Atom   50 Element H  Has Mass    1.00783
   Atom   51 Element H  Has Mass    1.00783
   Atom   52 Element H  Has Mass    1.00783
   Atom   53 Element H  Has Mass    1.00783
   Atom   54 Element H  Has Mass    1.00783
   Atom   55 Element H  Has Mass    1.00783
   Atom   56 Element H  Has Mass    1.00783
   Molecular Mass:   368.214150 amu
   Principal axes and moments of inertia in atomic units:
                             1           2           3
    Eigenvalues --     4985.53624 28104.63070 30275.73413
          X               0.99998    -0.00545    -0.00084
          Y               0.00544     0.99990    -0.01268
          Z               0.00091     0.01268     0.99992
   Rotational Symmetry Number is   1
   The Molecule is an Asymmetric Top
   Translational Enthalpy:        0.889 kcal/mol
   Rotational Enthalpy:           0.889 kcal/mol
   Vibrational Enthalpy:        331.892 kcal/mol
   gas constant (RT):             0.592 kcal/mol
   Translational Entropy:        43.603  cal/mol.K
   Rotational Entropy:           36.693  cal/mol.K
   Vibrational Entropy:          80.494  cal/mol.K

   Total Enthalpy:              334.262 kcal/mol
   Total Entropy:               160.790  cal/mol.K

 Total job time:  62446.06s(wall), 59856.33s(cpu)
        *  Thank you very much for using Q-Chem.  Have a nice day.  *

User input:
--------------------------------------------------------------
$molecule
read
$end

$rem
scf_convergence=10
cis_convergence=10
thresh=12
max_scf_cycles=100
max_cis_cycles=100
MEM_TOTAL	20000
MEM_STATIC	5000
JOBTYPE    force
SYMMETRY   FALSE
EXCHANGE     	HF
CORRELATION  	none  (built-in)
BASIS       	6-31g**
cis_state_deriv   1
cis_n_roots       3
cis_singlets      false
cis_triplets      true
scf_guess read
$end

--------------------------------------------------------------

    6   -1113.6852241371      6.09E-11 Convergence criterion met
 Total energy in the final basis set = -1113.6852241371
 Total job time:  7633.47s(wall), 7613.89s(cpu)

User input:
--------------------------------------------------------------
$molecule
read
$end

$rem
scf_convergence=10
cis_convergence=10
thresh=12
max_scf_cycles=100
max_cis_cycles=100
MEM_TOTAL	20000
MEM_STATIC	5000
JOBTYPE    Force
SYMMETRY   FALSE
EXCHANGE     	HF
CORRELATION  	none  (built-in)
BASIS       	6-31g**
cis_state_deriv   2
cis_n_roots       3
cis_singlets      false
cis_triplets      true
scf_guess read
$end

--------------------------------------------------------------

    2   -1113.6852241372      3.08E-11 Convergence criterion met
 Total energy in the final basis set = -1113.6852241372
        *  Thank you very much for using Q-Chem.  Have a nice day.  *

             Standard Nuclear Orientation (Angstroms)
    I     Atom           X                Y                Z
 ----------------------------------------------------------------
    1      C       1.4381254924     0.2616305172    -0.8573695076
    2      C       1.4411086480     1.5930272440    -1.6264928767
    3      C       0.0189055953     2.1030737871    -1.8673345916
    4      C      -0.7731906263     2.2368612579    -0.5634693589
    5      C      -0.7813442117     0.9115058447     0.2138575434
    6      C       0.6447999154     0.4028992266     0.4527293275
    7      C      -2.2040277442     2.7236846395    -0.8069523152
    8      C      -3.0132652421     2.8247642767     0.4919997924
    9      C      -3.0077788160     1.5403690605     1.3405594475
   10      C      -1.5475697649     1.0674230487     1.5308008630
   11      C      -3.9263832282     0.4307505631     0.8602432255
   12      C       2.8381078085    -0.2899431490    -0.6329957788
   13      C      -4.0831189181    -0.7460362449     1.7249851406
   14      C       3.7762956211     0.3785897091     0.0974848121
   15      C       3.1961854940    -1.5447309454    -1.1964937339
   16      C       5.0789632917    -0.1444808639     0.3020835094
   17      C       4.4343598124    -2.0745684409    -1.0201775172
   18      C      -4.7294650803     0.4680884357    -0.3141825015
   19      C       5.4171162134    -1.3888378355    -0.2630949700
   20      C       6.0580516191     0.5509653573     1.0629523786
   21      C       7.2977149043     0.0279037579     1.2436026803
   22      C      -5.5578265517    -0.5559916039    -0.6655802678
   23      C       6.7220450431    -1.9114768682    -0.0573961514
   24      C       7.6365243159    -1.2247809499     0.6740746345
   25      C      -4.8969441958    -1.7789723528     1.4063770114
   26      C      -5.6554595243    -1.7486317096     0.1844302786
   27      C      -6.5056580907    -2.8477371518    -0.1930577367
   28      O      -7.1667509342    -2.8566046573    -1.2073294198
   29      H       0.9067041578    -0.4606657345    -1.4747983552
   30      H       1.9600663223     1.4674446948    -2.5726515064
   31      H       2.0005296533     2.3372575391    -1.0633903543
   32      H      -0.5027042320     1.4167623105    -2.5340655547
   33      H       0.0533490093     3.0626187809    -2.3782778421
   34      H      -0.2662485502     2.9779273100     0.0596767597
   35      H      -1.3024957703     0.1718201607    -0.3967025460
   36      H       1.1638390983     1.0901493330     1.1191055023
   37      H       0.6147091630    -0.5567276872     0.9629054091
   38      H      -2.1839774934     3.6982501015    -1.2895361225
   39      H      -2.6854448685     2.0459296849    -1.5069948242
   40      H      -2.5780283134     3.6144267154     1.1009062647
   41      H      -4.0319021721     3.1378445244     0.2823151589
   42      H      -3.3729644589     1.8175857196     2.3315579331
   43      H      -1.5188368123     0.1325328503     2.0827385861
   44      H      -1.0332241965     1.8007914679     2.1506619218
   45      H      -3.5377399889    -0.7751115333     2.6513834654
   46      H       3.5421432823     1.3317450328     0.5397899077
   47      H       2.4659327108    -2.0832113435    -1.7755868468
   48      H       4.6821174562    -3.0266856977    -1.4572399864
   49      H      -4.6917898194     1.3297559847    -0.9521619957
   50      H       5.8010956300     1.5026167494     1.4954592182
   51      H       8.0313775252     0.5623708217     1.8210143815
   52      H      -6.1554228948    -0.5203196796    -1.5544112957
   53      H       6.9752536046    -2.8632343131    -0.4919379035
   54      H       8.6227313578    -1.6266402359     0.8255808245
   55      H      -4.9907226423    -2.6262291829     2.0626560868
   56      H      -6.5319699658    -3.6982587771     0.4911390471
 ----------------------------------------------------------------

    2   -1113.6852241372      2.61E-11 Convergence criterion met
 Total energy in the final basis set = -1113.6852241372

               CIS Excitation Energies
 ---------------------------------------------------

 Excited state   1: excitation energy (eV) =    2.5192
    Total energy for state   1:  -1113.592645511209
    Multiplicity: Triplet
    Trans. Mom.:  0.0000 X   0.0000 Y   0.0000 Z
    Strength   :  0.0000
    D( 96) --> V(  4) amplitude =  0.2812
    D( 97) --> V(  1) amplitude =  0.8844

 Excited state   2: excitation energy (eV) =    2.7409
    Total energy for state   2:  -1113.584498598244
    Multiplicity: Triplet
    Trans. Mom.:  0.0000 X   0.0000 Y   0.0000 Z
    Strength   :  0.0000
    D( 95) --> V(  5) amplitude =  0.3241
    D( 98) --> V(  3) amplitude =  0.3547
    D( 99) --> V(  2) amplitude = -0.8163

 ---------------------------------------------------

                    Orbital Energies (a.u.)
 --------------------------------------------------------------

 Alpha MOs
 -- Occupied --
-20.548 -11.322 -11.273 -11.256 -11.255 -11.246 -11.245 -11.243
-11.240 -11.238 -11.235 -11.235 -11.231 -11.231 -11.231 -11.231
-11.230 -11.229 -11.228 -11.227 -11.226 -11.226 -11.224 -11.224
-11.221 -11.219 -11.219 -11.218  -1.378  -1.177  -1.164  -1.145
 -1.119  -1.091  -1.055  -1.042  -1.038  -1.027  -1.015  -0.991
 -0.980  -0.963  -0.899  -0.873  -0.850  -0.841  -0.829  -0.819
 -0.813  -0.803  -0.784  -0.763  -0.757  -0.702  -0.699  -0.695
 -0.667  -0.662  -0.647  -0.637  -0.635  -0.623  -0.620  -0.615
 -0.607  -0.601  -0.597  -0.592  -0.584  -0.581  -0.573  -0.566
 -0.561  -0.541  -0.541  -0.533  -0.524  -0.522  -0.513  -0.506
 -0.505  -0.494  -0.486  -0.482  -0.479  -0.473  -0.472  -0.466
 -0.456  -0.451  -0.436  -0.416  -0.415  -0.412  -0.377  -0.355
 -0.315  -0.310  -0.284

          Ground-State Mulliken Net Atomic Charges

     Atom                 Charge (a.u.)
  ----------------------------------------
      1 C                    -0.154757
      2 C                    -0.197472
      3 C                    -0.209975
      4 C                    -0.120029
      5 C                    -0.130970
      6 C                    -0.181638
      7 C                    -0.204619
      8 C                    -0.230163
      9 C                    -0.155144
     10 C                    -0.197180
     11 C                     0.029000
     12 C                    -0.001275
     13 C                    -0.165960
     14 C                    -0.136011
     15 C                    -0.168190
     16 C                    -0.029718
     17 C                    -0.124774
     18 C                    -0.168963
     19 C                    -0.040449
     20 C                    -0.127246
     21 C                    -0.158107
     22 C                    -0.089216
     23 C                    -0.124186
     24 C                    -0.160884
     25 C                    -0.110804
     26 C                    -0.179877
     27 C                     0.396622
     28 O                    -0.538562
     29 H                     0.120383
     30 H                     0.123232
     31 H                     0.106305
     32 H                     0.108161
     33 H                     0.114576
     34 H                     0.102665
     35 H                     0.117568
     36 H                     0.103907
     37 H                     0.121419
     38 H                     0.116179
     39 H                     0.110463
     40 H                     0.118798
     41 H                     0.122343
     42 H                     0.143430
     43 H                     0.117748
     44 H                     0.112755
     45 H                     0.149728
     46 H                     0.146115
     47 H                     0.147825
     48 H                     0.152635
     49 H                     0.156527
     50 H                     0.149118
     51 H                     0.149604
     52 H                     0.197198
     53 H                     0.151340
     54 H                     0.149709
     55 H                     0.163978
     56 H                     0.106840
  ----------------------------------------
  Sum of atomic charges =     0.000000

                    Cartesian Multipole Moments
 -----------------------------------------------------------------
    Charge (ESU x 10^10)
                 0.0000
    Dipole Moment (Debye)
         X       2.7149      Y       2.0095      Z       2.5518
       Tot       4.2333
    Quadrupole Moments (Debye-Ang)
        XX    -197.1681     XY     -14.7911     YY    -161.4392
        XZ     -12.7364     YZ      -4.0508     ZZ    -166.8417

 Total job time:  3698.97s(wall), 3693.56s(cpu)
        *  Thank you very much for using Q-Chem.  Have a nice day.  *
