User input:
--------------------------------------------------------------
$comment
C1,3ea
$end
$molecule
0 1
C      -2.0948673609     1.3450749085    -0.4172015756
C      -0.8614711659     0.4272357606    -0.3706287352
C       0.4485413975     1.2222753469    -0.3369260658
C       0.4657111264     2.2111006600     0.8399870522
C      -0.7607375533     3.1273876837     0.7979388716
C      -2.0693949040     2.3354629036     0.7588171685
H      -0.9154332369    -0.2108132260     0.5098393092
H      -0.8700263280    -0.2357961474    -1.2320789941
H       0.4112121654     1.6248421154     1.7607280408
H      -0.7567993144     3.7886987907     1.6613191560
H      -0.6989136350     3.7680329549    -0.0816853145
H      -2.9157982722     3.0125590907     0.6846990100
H       0.5050022328     1.8086028824    -1.2573596411
C       1.6707611111     0.2979103395    -0.2988029438
C       2.9965169344     1.0832239847    -0.2736123278
C       3.0016051614     2.0811569928     0.9001108811
C       1.7780841725     2.9995149757     0.8662331081
H       1.6075279053    -0.3400526780     0.5814936222
H       1.6590721487    -0.3644957196    -1.1607240264
H       3.0140152440     1.5356978773     1.8418208157
H       3.9135456063     2.6712387213     0.8728465712
H       1.7938153620     3.6625726052     1.7280584175
H       1.8298048221     3.6381403255    -0.0154452298
H       3.0361962222     1.6701716859    -1.1902301560
C       4.2066367243     0.1782556115    -0.2728047088
C       5.1541616664     0.2035451786    -1.3658573952
C       4.4710294341    -0.7433919565     0.8066562226
C       6.2483747135    -0.5956983818    -1.3916501754
H       4.9755845487     0.8831060411    -2.1811199723
C       5.5545245569    -1.5561307373     0.8130834924
H       3.7838628315    -0.7851945992     1.6328380998
C       6.5017736468    -1.5179219398    -0.2973697988
H       6.9390105684    -0.5593306171    -2.2151046809
H       5.7472746935    -2.2392101203     1.6165453316
C       7.6562482408    -2.3767814500    -0.2995149156
H       8.3212029743    -2.2952689019    -1.1614682961
O       7.9041859161    -3.1586507022     0.5926279597
H      -2.1894346801     1.7920486407     1.6937743834
C      -5.4088556245     0.0402687698    -1.7502386584
C      -5.8401399619    -0.8424685824    -0.7285241513
C      -4.2359068083     0.7158112500    -1.6374160550
C      -7.0600988378    -1.5657300395    -0.8115885115
C      -5.0231511974    -1.0023336303     0.4068824092
C      -3.3991926573     0.5661539223    -0.4982892140
H      -3.9285982718     1.3809929945    -2.4259210196
C      -7.4393444321    -2.4023512988     0.1879377694
H      -7.6809013367    -1.4397655455    -1.6819430382
C      -5.4471562659    -1.8855950254     1.4370450801
C      -3.8046941193    -0.2807851097     0.4911255786
C      -6.6180682735    -2.5643841016     1.3314667158
H      -8.3643790142    -2.9468580085     0.1182446311
H      -4.8235360539    -2.0089623011     2.3056973272
H      -3.1977860309    -0.4200517349     1.3693127898
H      -6.9297552274    -3.2304580244     2.1166242098
H      -6.0257463036     0.1702025125    -2.6228821967
H      -2.0188452924     1.9337197926    -1.3300575312
$end

$rem
MEM_TOTAL	20000
MEM_STATIC	5000
JOBTYPE    freq
SYMMETRY   FALSE
EXCHANGE     	HF
CORRELATION  	none  (built-in)
BASIS       	6-31g**
cis_state_deriv   1
cis_n_roots       3
cis_singlets      false
cis_triplets      true
max_scf_cycles=100
max_cis_cycles=100
$end

--------------------------------------------------------------

   15   -1113.6920031932      6.62E-09 Convergence criterion met
 Total energy in the final basis set = -1113.6920031932
 Frequency:        14.52                  19.29                  22.54
 Force Cnst:      0.0005                 0.0011                 0.0014
 Red. Mass:       4.2212                 5.2305                 4.6694
 IR Intens:        0.054                  0.036                  1.541
 Frequency:        40.83                  52.33                  59.01
 Force Cnst:      0.0053                 0.0071                 0.0071
 Red. Mass:       5.3682                 4.3897                 3.4551
 IR Intens:        0.733                  0.457                  0.058
 Frequency:       102.90                 136.71                 142.95
 Force Cnst:      0.0327                 0.0397                 0.0529
 Red. Mass:       5.2464                 3.6059                 4.3967
 IR Intens:        0.654                  0.467                  1.385
 Frequency:       160.45                 192.41                 200.27
 Force Cnst:      0.0685                 0.1013                 0.0861
 Red. Mass:       4.5133                 4.6443                 3.6425
 IR Intens:        1.470                  0.059                  0.499
 Frequency:       207.20                 213.52                 238.68
 Force Cnst:      0.0858                 0.0846                 0.1047
 Red. Mass:       3.3909                 3.1496                 3.1207
 IR Intens:        6.357                  2.461                  2.956
 Frequency:       257.75                 266.59                 280.53
 Force Cnst:      0.1652                 0.1629                 0.1182
 Red. Mass:       4.2215                 3.8906                 2.5488
 IR Intens:        0.449                  1.605                  1.758
 Frequency:       323.74                 336.12                 372.78
 Force Cnst:      0.1568                 0.2229                 0.1570
 Red. Mass:       2.5385                 3.3493                 1.9180
 IR Intens:        2.473                  2.789                  0.020
 Frequency:       389.02                 413.60                 415.09
 Force Cnst:      0.2928                 0.3263                 0.3320
 Red. Mass:       3.2842                 3.2370                 3.2703
 IR Intens:        0.776                  0.750                  1.631
 Frequency:       444.24                 450.88                 455.64
 Force Cnst:      0.5106                 0.4360                 0.3693
 Red. Mass:       4.3916                 3.6402                 3.0194
 IR Intens:        2.931                  1.364                  7.327
 Frequency:       496.51                 504.93                 519.18
 Force Cnst:      0.5597                 0.5108                 0.4289
 Red. Mass:       3.8534                 3.4003                 2.7006
 IR Intens:        4.183                  3.891                  3.061
 Frequency:       525.03                 535.36                 546.96
 Force Cnst:      0.4286                 0.4326                 0.5218
 Red. Mass:       2.6391                 2.5617                 2.9606
 IR Intens:        2.199                 14.481                  2.156
 Frequency:       557.33                 571.17                 589.43
 Force Cnst:      0.8644                 0.7240                 1.0575
 Red. Mass:       4.7233                 3.7666                 5.1663
 IR Intens:        3.914                  2.933                  7.970
 Frequency:       600.40                 621.62                 673.28
 Force Cnst:      0.6960                 0.8913                 1.5226
 Red. Mass:       3.2770                 3.9148                 5.7008
 IR Intens:        1.031                  0.071                  2.561
 Frequency:       676.03                 683.69                 733.25
 Force Cnst:      1.1926                 1.7005                 0.8998
 Red. Mass:       4.4292                 6.1747                 2.8404
 IR Intens:        3.200                  6.771                  2.944
 Frequency:       793.02                 808.06                 819.04
 Force Cnst:      0.4673                 1.0092                 0.8883
 Red. Mass:       1.2612                 2.6232                 2.2476
 IR Intens:        6.072                  4.590                  7.250
 Frequency:       819.60                 824.50                 840.07
 Force Cnst:      1.1076                 0.7090                 1.9747
 Red. Mass:       2.7985                 1.7702                 4.7492
 IR Intens:       44.513                 41.088                  1.805
 Frequency:       841.28                 844.46                 855.13
 Force Cnst:      0.5814                 1.5508                 1.3029
 Red. Mass:       1.3944                 3.6909                 3.0240
 IR Intens:       17.564                 61.854                  2.198
 Frequency:       888.68                 914.09                 924.98
 Force Cnst:      0.9749                 0.8454                 0.7122
 Red. Mass:       2.0952                 1.7173                 1.4129
 IR Intens:        3.321                  4.347                 28.268
 Frequency:       929.67                 955.43                 967.49
 Force Cnst:      0.9349                 1.1867                 0.9061
 Red. Mass:       1.8360                 2.2064                 1.6429
 IR Intens:        4.091                  1.127                 12.393
 Frequency:       976.94                 991.15                1004.08
 Force Cnst:      1.2429                 2.1102                 1.9661
 Red. Mass:       2.2102                 3.6458                 3.3098
 IR Intens:        0.926                  2.830                 29.743
 Frequency:      1019.63                1021.08                1030.52
 Force Cnst:      0.9300                 0.9637                 0.8153
 Red. Mass:       1.5182                 1.5688                 1.3030
 IR Intens:       15.097                  4.773                  0.054
 Frequency:      1039.61                1045.44                1052.72
 Force Cnst:      2.5547                 0.8333                 1.0913
 Red. Mass:       4.0119                 1.2940                 1.6714
 IR Intens:        3.544                  0.078                  1.217
 Frequency:      1058.83                1075.04                1078.30
 Force Cnst:      1.8501                 1.5501                 1.3784
 Red. Mass:       2.8008                 2.2764                 2.0121
 IR Intens:       21.033                  8.420                  4.334
 Frequency:      1087.62                1096.84                1101.35
 Force Cnst:      0.9384                 1.7607                 1.0962
 Red. Mass:       1.3464                 2.4841                 1.5339
 IR Intens:        1.178                  0.896                  8.472
 Frequency:      1102.96                1119.52                1131.33
 Force Cnst:      1.2548                 0.9829                 1.7069
 Red. Mass:       1.7507                 1.3310                 2.2635
 IR Intens:       12.260                  0.013                  1.776
 Frequency:      1143.76                1151.04                1172.84
 Force Cnst:      1.2715                 1.1456                 2.2138
 Red. Mass:       1.6497                 1.4675                 2.7315
 IR Intens:        2.675                  1.813                  0.184
 Frequency:      1178.14                1189.41                1200.59
 Force Cnst:      1.8818                 2.1758                 1.3416
 Red. Mass:       2.3011                 2.6104                 1.5797
 IR Intens:        1.578                  1.324                  9.599
 Frequency:      1214.32                1230.69                1237.36
 Force Cnst:      1.6336                 1.2494                 1.6071
 Red. Mass:       1.8803                 1.4001                 1.7815
 IR Intens:        1.991                  2.537                  1.289
 Frequency:      1251.95                1253.16                1259.87
 Force Cnst:      1.7230                 1.4898                 1.7977
 Red. Mass:       1.8658                 1.6102                 1.9223
 IR Intens:        1.016                  1.821                  3.814
 Frequency:      1281.84                1287.03                1299.23
 Force Cnst:      1.2355                 1.5778                 1.4195
 Red. Mass:       1.2762                 1.6166                 1.4273
 IR Intens:        0.128                  0.423                  0.998
 Frequency:      1309.44                1319.30                1338.83
 Force Cnst:      3.3083                 1.6110                 2.7268
 Red. Mass:       3.2748                 1.5709                 2.5819
 IR Intens:        0.629                  2.645                  0.304
 Frequency:      1363.11                1373.20                1381.79
 Force Cnst:      1.5083                 1.6654                 1.4918
 Red. Mass:       1.3778                 1.4990                 1.3261
 IR Intens:        1.731                  0.150                  5.848
 Frequency:      1388.62                1395.55                1400.34
 Force Cnst:      2.1243                 2.0763                 1.9134
 Red. Mass:       1.8698                 1.8094                 1.6561
 IR Intens:        2.924                 13.930                  3.772
 Frequency:      1408.56                1435.11                1440.45
 Force Cnst:      1.9227                 1.6163                 1.5668
 Red. Mass:       1.6448                 1.3320                 1.2816
 IR Intens:        6.256                  1.057                  1.372
 Frequency:      1444.91                1451.87                1465.19
 Force Cnst:      1.7288                 1.5943                 1.6880
 Red. Mass:       1.4055                 1.2837                 1.3345
 IR Intens:        2.029                  3.163                  0.813
 Frequency:      1480.89                1483.28                1489.55
 Force Cnst:      2.3029                 2.2681                 2.3231
 Red. Mass:       1.7823                 1.7497                 1.7771
 IR Intens:        1.072                  7.019                  0.810
 Frequency:      1492.59                1504.27                1506.57
 Force Cnst:      4.0696                 1.9616                 1.9033
 Red. Mass:       3.1004                 1.4713                 1.4232
 IR Intens:        0.866                  1.109                  1.723
 Frequency:      1510.49                1516.85                1533.69
 Force Cnst:      1.9146                 2.0340                 2.3697
 Red. Mass:       1.4242                 1.5004                 1.7099
 IR Intens:        0.154                  1.392                  5.513
 Frequency:      1536.56                1537.66                1545.89
 Force Cnst:      2.2062                 1.9717                 2.4238
 Red. Mass:       1.5860                 1.4154                 1.7215
 IR Intens:        0.961                  6.460                  2.213
 Frequency:      1553.05                1561.78                1576.43
 Force Cnst:      2.4307                 2.3749                 3.3861
 Red. Mass:       1.7104                 1.6526                 2.3126
 IR Intens:        4.356                  7.784                 10.001
 Frequency:      1598.40                1612.21                1617.81
 Force Cnst:      3.3483                 1.6760                 1.6921
 Red. Mass:       2.2244                 1.0944                 1.0973
 IR Intens:        1.121                  0.379                  1.563
 Frequency:      1618.29                1625.17                1629.17
 Force Cnst:      1.6944                 1.7156                 1.9361
 Red. Mass:       1.0981                 1.1025                 1.2381
 IR Intens:        0.005                 11.372                  0.017
 Frequency:      1631.67                1632.97                1634.98
 Force Cnst:      3.0010                 3.2815                 1.9993
 Red. Mass:       1.9131                 2.0886                 1.2694
 IR Intens:        1.400                  1.253                  0.443
 Frequency:      1676.47                1712.59                1777.20
 Force Cnst:      5.1327                 9.7698                12.0106
 Red. Mass:       3.0996                 5.6536                 6.4542
 IR Intens:       13.536                118.838                  0.644
 Frequency:      1807.78                1845.04                3123.64
 Force Cnst:      9.7860                11.9478                 6.2189
 Red. Mass:       5.0823                 5.9570                 1.0818
 IR Intens:       15.172                 10.858                  0.054
 Frequency:      3133.50                3157.53                3164.62
 Force Cnst:      6.2743                 6.2631                 6.3604
 Red. Mass:       1.0846                 1.0662                 1.0779
 IR Intens:       15.098                  1.637                 11.481
 Frequency:      3166.21                3169.74                3170.19
 Force Cnst:      6.3477                 6.3598                 6.3280
 Red. Mass:       1.0747                 1.0743                 1.0687
 IR Intens:       11.607                 65.811                  2.571
 Frequency:      3176.35                3177.88                3178.97
 Force Cnst:      6.3280                 6.4500                 6.3630
 Red. Mass:       1.0645                 1.0840                 1.0687
 IR Intens:       30.447                108.070                 29.090
 Frequency:      3182.71                3204.23                3211.85
 Force Cnst:      6.3624                 6.6263                 6.7046
 Red. Mass:       1.0661                 1.0954                 1.1031
 IR Intens:       71.948                  9.905                  6.038
 Frequency:      3213.34                3220.15                3224.13
 Force Cnst:      6.6652                 6.7389                 6.7604
 Red. Mass:       1.0956                 1.1030                 1.1038
 IR Intens:      107.913                 41.745                 45.000
 Frequency:      3228.12                3332.69                3334.40
 Force Cnst:      6.7757                 7.1165                 7.1194
 Red. Mass:       1.1036                 1.0875                 1.0868
 IR Intens:      131.596                  5.314                  2.045
 Frequency:      3339.30                3340.97                3343.32
 Force Cnst:      7.1629                 7.1459                 7.1819
 Red. Mass:       1.0902                 1.0866                 1.0905
 IR Intens:        7.919                  6.967                  9.465
 Frequency:      3354.57                3355.86                3356.31
 Force Cnst:      7.2721                 7.2259                 7.2791
 Red. Mass:       1.0968                 1.0890                 1.0967
 IR Intens:        9.871                 14.933                 70.552
 Frequency:      3362.45                3369.16                3403.92
 Force Cnst:      7.2940                 7.3509                 7.4588
 Red. Mass:       1.0950                 1.0991                 1.0926
 IR Intens:       16.850                 36.825                  1.451

 STANDARD THERMODYNAMIC QUANTITIES AT   298.15 K  AND     1.00 ATM

   This Molecule has  0 Imaginary Frequencies
   Zero point vibrational energy:      319.674 kcal/mol

   Atom    1 Element C  Has Mass   12.00000
   Atom    2 Element C  Has Mass   12.00000
   Atom    3 Element C  Has Mass   12.00000
   Atom    4 Element C  Has Mass   12.00000
   Atom    5 Element C  Has Mass   12.00000
   Atom    6 Element C  Has Mass   12.00000
   Atom    7 Element H  Has Mass    1.00783
   Atom    8 Element H  Has Mass    1.00783
   Atom    9 Element H  Has Mass    1.00783
   Atom   10 Element H  Has Mass    1.00783
   Atom   11 Element H  Has Mass    1.00783
   Atom   12 Element H  Has Mass    1.00783
   Atom   13 Element H  Has Mass    1.00783
   Atom   14 Element C  Has Mass   12.00000
   Atom   15 Element C  Has Mass   12.00000
   Atom   16 Element C  Has Mass   12.00000
   Atom   17 Element C  Has Mass   12.00000
   Atom   18 Element H  Has Mass    1.00783
   Atom   19 Element H  Has Mass    1.00783
   Atom   20 Element H  Has Mass    1.00783
   Atom   21 Element H  Has Mass    1.00783
   Atom   22 Element H  Has Mass    1.00783
   Atom   23 Element H  Has Mass    1.00783
   Atom   24 Element H  Has Mass    1.00783
   Atom   25 Element C  Has Mass   12.00000
   Atom   26 Element C  Has Mass   12.00000
   Atom   27 Element C  Has Mass   12.00000
   Atom   28 Element C  Has Mass   12.00000
   Atom   29 Element H  Has Mass    1.00783
   Atom   30 Element C  Has Mass   12.00000
   Atom   31 Element H  Has Mass    1.00783
   Atom   32 Element C  Has Mass   12.00000
   Atom   33 Element H  Has Mass    1.00783
   Atom   34 Element H  Has Mass    1.00783
   Atom   35 Element C  Has Mass   12.00000
   Atom   36 Element H  Has Mass    1.00783
   Atom   37 Element O  Has Mass   15.99491
   Atom   38 Element H  Has Mass    1.00783
   Atom   39 Element C  Has Mass   12.00000
   Atom   40 Element C  Has Mass   12.00000
   Atom   41 Element C  Has Mass   12.00000
   Atom   42 Element C  Has Mass   12.00000
   Atom   43 Element C  Has Mass   12.00000
   Atom   44 Element C  Has Mass   12.00000
   Atom   45 Element H  Has Mass    1.00783
   Atom   46 Element C  Has Mass   12.00000
   Atom   47 Element H  Has Mass    1.00783
   Atom   48 Element C  Has Mass   12.00000
   Atom   49 Element C  Has Mass   12.00000
   Atom   50 Element C  Has Mass   12.00000
   Atom   51 Element H  Has Mass    1.00783
   Atom   52 Element H  Has Mass    1.00783
   Atom   53 Element H  Has Mass    1.00783
   Atom   54 Element H  Has Mass    1.00783
   Atom   55 Element H  Has Mass    1.00783
   Atom   56 Element H  Has Mass    1.00783
   Molecular Mass:   368.214150 amu
   Principal axes and moments of inertia in atomic units:
                             1           2           3
    Eigenvalues --     5214.69655 31474.12483 34367.42545
          X               0.99998     0.00541    -0.00113
          Y              -0.00540     0.99998     0.00281
          Z               0.00115    -0.00280     1.00000
   Rotational Symmetry Number is   1
   The Molecule is an Asymmetric Top
   Translational Enthalpy:        0.889 kcal/mol
   Rotational Enthalpy:           0.889 kcal/mol
   Vibrational Enthalpy:        331.769 kcal/mol
   gas constant (RT):             0.592 kcal/mol
   Translational Entropy:        43.603  cal/mol.K
   Rotational Entropy:           36.976  cal/mol.K
   Vibrational Entropy:          82.386  cal/mol.K

   Total Enthalpy:              334.139 kcal/mol
   Total Entropy:               162.965  cal/mol.K

 Total job time:  58335.46s(wall), 55690.99s(cpu)
        *  Thank you very much for using Q-Chem.  Have a nice day.  *

User input:
--------------------------------------------------------------
$molecule
read
$end

$rem
scf_convergence=10
cis_convergence=10
thresh=12
max_scf_cycles=100
max_cis_cycles=100
MEM_TOTAL	20000
MEM_STATIC	5000
JOBTYPE    force
SYMMETRY   FALSE
EXCHANGE     	HF
CORRELATION  	none  (built-in)
BASIS       	6-31g**
cis_state_deriv   1
cis_n_roots       3
cis_singlets      false
cis_triplets      true
scf_guess read
$end

--------------------------------------------------------------

    6   -1113.6920031773      5.32E-11 Convergence criterion met
 Total energy in the final basis set = -1113.6920031773
 Total job time:  7957.90s(wall), 7936.72s(cpu)

User input:
--------------------------------------------------------------
$molecule
read
$end

$rem
scf_convergence=10
cis_convergence=10
thresh=12
max_scf_cycles=100
max_cis_cycles=100
MEM_TOTAL	20000
MEM_STATIC	5000
JOBTYPE    Force
SYMMETRY   FALSE
EXCHANGE     	HF
CORRELATION  	none  (built-in)
BASIS       	6-31g**
cis_state_deriv   2
cis_n_roots       3
cis_singlets      false
cis_triplets      true
scf_guess read
$end

--------------------------------------------------------------

    2   -1113.6920031772      3.26E-11 Convergence criterion met
 Total energy in the final basis set = -1113.6920031772
        *  Thank you very much for using Q-Chem.  Have a nice day.  *

             Standard Nuclear Orientation (Angstroms)
    I     Atom           X                Y                Z
 ----------------------------------------------------------------
    1      C      -2.0948673609     1.3450749085    -0.4172015756
    2      C      -0.8614711659     0.4272357606    -0.3706287352
    3      C       0.4485413975     1.2222753469    -0.3369260658
    4      C       0.4657111264     2.2111006600     0.8399870522
    5      C      -0.7607375533     3.1273876837     0.7979388716
    6      C      -2.0693949040     2.3354629036     0.7588171685
    7      H      -0.9154332369    -0.2108132260     0.5098393092
    8      H      -0.8700263280    -0.2357961474    -1.2320789941
    9      H       0.4112121654     1.6248421154     1.7607280408
   10      H      -0.7567993144     3.7886987907     1.6613191560
   11      H      -0.6989136350     3.7680329549    -0.0816853145
   12      H      -2.9157982722     3.0125590907     0.6846990100
   13      H       0.5050022328     1.8086028824    -1.2573596411
   14      C       1.6707611111     0.2979103395    -0.2988029438
   15      C       2.9965169344     1.0832239847    -0.2736123278
   16      C       3.0016051614     2.0811569928     0.9001108811
   17      C       1.7780841725     2.9995149757     0.8662331081
   18      H       1.6075279053    -0.3400526780     0.5814936222
   19      H       1.6590721487    -0.3644957196    -1.1607240264
   20      H       3.0140152440     1.5356978773     1.8418208157
   21      H       3.9135456063     2.6712387213     0.8728465712
   22      H       1.7938153620     3.6625726052     1.7280584175
   23      H       1.8298048221     3.6381403255    -0.0154452298
   24      H       3.0361962222     1.6701716859    -1.1902301560
   25      C       4.2066367243     0.1782556115    -0.2728047088
   26      C       5.1541616664     0.2035451786    -1.3658573952
   27      C       4.4710294341    -0.7433919565     0.8066562226
   28      C       6.2483747135    -0.5956983818    -1.3916501754
   29      H       4.9755845487     0.8831060411    -2.1811199723
   30      C       5.5545245569    -1.5561307373     0.8130834924
   31      H       3.7838628315    -0.7851945992     1.6328380998
   32      C       6.5017736468    -1.5179219398    -0.2973697988
   33      H       6.9390105684    -0.5593306171    -2.2151046809
   34      H       5.7472746935    -2.2392101203     1.6165453316
   35      C       7.6562482408    -2.3767814500    -0.2995149156
   36      H       8.3212029743    -2.2952689019    -1.1614682961
   37      O       7.9041859161    -3.1586507022     0.5926279597
   38      H      -2.1894346801     1.7920486407     1.6937743834
   39      C      -5.4088556245     0.0402687698    -1.7502386584
   40      C      -5.8401399619    -0.8424685824    -0.7285241513
   41      C      -4.2359068083     0.7158112500    -1.6374160550
   42      C      -7.0600988378    -1.5657300395    -0.8115885115
   43      C      -5.0231511974    -1.0023336303     0.4068824092
   44      C      -3.3991926573     0.5661539223    -0.4982892140
   45      H      -3.9285982718     1.3809929945    -2.4259210196
   46      C      -7.4393444321    -2.4023512988     0.1879377694
   47      H      -7.6809013367    -1.4397655455    -1.6819430382
   48      C      -5.4471562659    -1.8855950254     1.4370450801
   49      C      -3.8046941193    -0.2807851097     0.4911255786
   50      C      -6.6180682735    -2.5643841016     1.3314667158
   51      H      -8.3643790142    -2.9468580085     0.1182446311
   52      H      -4.8235360539    -2.0089623011     2.3056973272
   53      H      -3.1977860309    -0.4200517349     1.3693127898
   54      H      -6.9297552274    -3.2304580244     2.1166242098
   55      H      -6.0257463036     0.1702025125    -2.6228821967
   56      H      -2.0188452924     1.9337197926    -1.3300575312
 ----------------------------------------------------------------

    2   -1113.6920031773      2.88E-11 Convergence criterion met
 Total energy in the final basis set = -1113.6920031773

               CIS Excitation Energies
 ---------------------------------------------------

 Excited state   1: excitation energy (eV) =    2.5575
    Total energy for state   1:  -1113.598015137799
    Multiplicity: Triplet
    Trans. Mom.:  0.0000 X   0.0000 Y   0.0000 Z
    Strength   :  0.0000
    D( 96) --> V(  4) amplitude =  0.2878
    D( 97) --> V(  1) amplitude =  0.8774

 Excited state   2: excitation energy (eV) =    2.7404
    Total energy for state   2:  -1113.591295729696
    Multiplicity: Triplet
    Trans. Mom.:  0.0000 X   0.0000 Y   0.0000 Z
    Strength   :  0.0000
    D( 95) --> V(  5) amplitude =  0.3243
    D( 98) --> V(  3) amplitude =  0.3523
    D( 99) --> V(  2) amplitude = -0.8160

 ---------------------------------------------------

                    Orbital Energies (a.u.)
 --------------------------------------------------------------

 Alpha MOs
 -- Occupied --
-20.547 -11.322 -11.271 -11.259 -11.252 -11.247 -11.243 -11.242
-11.241 -11.238 -11.236 -11.236 -11.232 -11.232 -11.231 -11.231
-11.230 -11.229 -11.229 -11.227 -11.227 -11.227 -11.225 -11.225
-11.222 -11.220 -11.220 -11.219  -1.377  -1.178  -1.163  -1.147
 -1.119  -1.092  -1.056  -1.043  -1.034  -1.032  -1.015  -0.991
 -0.980  -0.963  -0.898  -0.872  -0.848  -0.838  -0.830  -0.822
 -0.814  -0.805  -0.779  -0.767  -0.763  -0.704  -0.699  -0.695
 -0.667  -0.665  -0.649  -0.636  -0.635  -0.620  -0.617  -0.615
 -0.602  -0.602  -0.595  -0.594  -0.584  -0.580  -0.575  -0.570
 -0.563  -0.545  -0.539  -0.533  -0.527  -0.521  -0.509  -0.506
 -0.504  -0.495  -0.489  -0.481  -0.478  -0.477  -0.468  -0.467
 -0.457  -0.454  -0.437  -0.417  -0.416  -0.413  -0.378  -0.355
 -0.316  -0.310  -0.285

          Ground-State Mulliken Net Atomic Charges

     Atom                 Charge (a.u.)
  ----------------------------------------
      1 C                    -0.154264
      2 C                    -0.180387
      3 C                    -0.135422
      4 C                    -0.120505
      5 C                    -0.209385
      6 C                    -0.197305
      7 H                     0.106057
      8 H                     0.122439
      9 H                     0.104653
     10 H                     0.115467
     11 H                     0.105828
     12 H                     0.123034
     13 H                     0.106070
     14 C                    -0.184330
     15 C                    -0.165832
     16 C                    -0.201595
     17 C                    -0.208984
     18 H                     0.109082
     19 H                     0.124556
     20 H                     0.110988
     21 H                     0.124788
     22 H                     0.118018
     23 H                     0.107045
     24 H                     0.125038
     25 C                     0.026643
     26 C                    -0.174440
     27 C                    -0.153816
     28 C                    -0.109055
     29 H                     0.150794
     30 C                    -0.086420
     31 H                     0.153422
     32 C                    -0.180303
     33 H                     0.164910
     34 H                     0.197253
     35 C                     0.396341
     36 H                     0.106832
     37 O                    -0.539633
     38 H                     0.107470
     39 C                    -0.124469
     40 C                    -0.040264
     41 C                    -0.168083
     42 C                    -0.124281
     43 C                    -0.029872
     44 C                    -0.001205
     45 H                     0.146095
     46 C                    -0.160592
     47 H                     0.151230
     48 C                    -0.127036
     49 C                    -0.135434
     50 C                    -0.158002
     51 H                     0.150011
     52 H                     0.149829
     53 H                     0.146674
     54 H                     0.150216
     55 H                     0.152357
     56 H                     0.117772
  ----------------------------------------
  Sum of atomic charges =     0.000000

                    Cartesian Multipole Moments
 -----------------------------------------------------------------
    Charge (ESU x 10^10)
                 0.0000
    Dipole Moment (Debye)
         X      -2.5466      Y       3.3663      Z      -1.8000
       Tot       4.5888
    Quadrupole Moments (Debye-Ang)
        XX    -192.9249     XY      26.5430     YY    -177.5866
        XZ     -14.1503     YZ      -1.4427     ZZ    -157.4857

 Total job time:  3296.64s(wall), 3290.53s(cpu)
        *  Thank you very much for using Q-Chem.  Have a nice day.  *
