User input:
--------------------------------------------------------------
$comment
C1,3ea
$end
$molecule
0 1
C        -2.1368075154   -1.4328504006   -1.2227338751
C        -0.7473642032   -0.7791599224   -1.3975980938
C         0.1944935669   -0.9141999986   -0.1956630906
C         0.3410953228   -2.3862436648    0.2219004702
C        -1.0251778359   -3.0140492413    0.5137669317
C        -1.9941191738   -2.8666537544   -0.6637038716
H        -0.2670613079   -1.2556911091   -2.2518348482
H        -0.8703377222    0.2682658676   -1.6589831053
H        -2.5378674152   -1.5454045109   -2.2250536344
H         0.7772927879   -2.9218676554   -0.6251693811
H        -0.8989787721   -4.0717593544    0.7339644689
H        -1.4440865154   -2.5716312866    1.4133146084
H        -2.9724183825   -3.2549950567   -0.3961905756
H        -0.2305205997   -0.3675741712    0.6455139877
C         1.5632057979   -0.2908237367   -0.4959862575
C         2.5372844148   -0.4194771542    0.6912050552
C         2.6686966948   -1.8952221191    1.1133121658
C         1.3039001174   -2.5226207955    1.4048516434
H         1.9912417654   -0.7748973573   -1.3726536927
H         1.4413572500    0.7587035585   -0.7517182455
H         3.1596214126   -2.4582080101    0.3218272642
H         3.3092418426   -1.9688898335    1.9878807728
H         1.4299590895   -3.5722854149    1.6598401697
H         0.8660736846   -2.0433279639    2.2805103513
H         2.0899849142    0.1128169623    1.5295568989
C         3.8743888082    0.2285571208    0.4162290349
C         4.3319400378    1.3518921585    1.2050571289
C         4.7468029805   -0.2358918083   -0.6361522560
C         5.5255440116    1.9533179767    0.9807390006
H         3.6961412775    1.7148734252    1.9939305371
C         5.9458883707    0.3416761462   -0.8875666595
H         4.4330161842   -1.0684480086   -1.2402366063
C         6.3937313040    1.4737430172   -0.0814169853
H         5.8446122679    2.7870898417    1.5802350292
H         6.5909152989   -0.0062415764   -1.6699960564
C         7.6662157357    2.0936492159   -0.3401035882
H         7.9364327781    2.9349038850    0.3010206212
O         8.4193176442    1.7246081728   -1.2149733165
C        -4.0045513835    0.5609992987    1.4831984292
C        -5.0954279395    1.0960555432    0.7518503491
C        -3.0757508983   -0.2288243199    0.8859021221
C        -6.0822799329    1.9250076651    1.3470798103
C        -5.1927546747    0.7850451633   -0.6158677319
C        -3.1554532305   -0.5557137842   -0.5000249641
H        -2.2704117252   -0.6097852737    1.4810146125
C        -7.1111613411    2.4152674716    0.6082901259
H        -6.0029894963    2.1596527095    2.3946769291
C        -6.2799270270    1.3116587556   -1.3633355075
C        -4.2043790032   -0.0451190582   -1.2073865490
C        -7.2107714395    2.1029052918   -0.7696358474
H        -7.8559830830    3.0429484869    1.0646978641
H        -6.3557952334    1.0741765287   -2.4104550395
H        -4.3013982310   -0.2711078586   -2.2558559838
H        -8.0305689056    2.4974623138   -1.3436723331
H        -3.9189750252    0.7897687981    2.5318079443
H        -1.6266270170   -3.4925734436   -1.4753194335
$end

$rem
MEM_TOTAL	20000
MEM_STATIC	5000
JOBTYPE    freq
SYMMETRY   FALSE
EXCHANGE     	HF
CORRELATION  	none  (built-in)
BASIS       	6-31g**
cis_state_deriv   1
cis_n_roots       3
cis_singlets      false
cis_triplets      true
max_scf_cycles=100
max_cis_cycles=100
$end

--------------------------------------------------------------

   15   -1113.6843964445      7.32E-09 Convergence criterion met
 Total energy in the final basis set = -1113.6843964445
 Frequency:        10.64                  28.48                  30.48
 Force Cnst:      0.0004                 0.0019                 0.0034
 Red. Mass:       5.6700                 4.0380                 6.1226
 IR Intens:        0.057                  1.445                  0.535
 Frequency:        32.11                  53.65                  77.72
 Force Cnst:      0.0027                 0.0076                 0.0130
 Red. Mass:       4.3947                 4.4691                 3.6517
 IR Intens:        0.437                  0.320                  0.789
 Frequency:       100.48                 129.82                 158.66
 Force Cnst:      0.0333                 0.0437                 0.0556
 Red. Mass:       5.5948                 4.4050                 3.7459
 IR Intens:        0.493                  0.874                  0.210
 Frequency:       175.75                 183.71                 203.74
 Force Cnst:      0.0806                 0.0893                 0.0874
 Red. Mass:       4.4274                 4.4906                 3.5739
 IR Intens:        2.542                  1.153                  5.780
 Frequency:       211.57                 226.03                 238.59
 Force Cnst:      0.0992                 0.1018                 0.1365
 Red. Mass:       3.7606                 3.3828                 4.0697
 IR Intens:        1.037                  0.979                  3.686
 Frequency:       257.12                 265.26                 291.68
 Force Cnst:      0.1114                 0.1440                 0.1288
 Red. Mass:       2.8603                 3.4746                 2.5700
 IR Intens:        0.168                  1.542                  2.455
 Frequency:       327.56                 343.42                 370.44
 Force Cnst:      0.1465                 0.2183                 0.1574
 Red. Mass:       2.3169                 3.1418                 1.9473
 IR Intens:        1.722                  3.014                  0.100
 Frequency:       397.51                 413.18                 414.93
 Force Cnst:      0.2963                 0.3867                 0.3375
 Red. Mass:       3.1826                 3.8445                 3.3273
 IR Intens:        0.836                  1.641                  0.177
 Frequency:       442.55                 451.82                 461.64
 Force Cnst:      0.5043                 0.3878                 0.4460
 Red. Mass:       4.3707                 3.2242                 3.5524
 IR Intens:        3.334                  5.766                  2.757
 Frequency:       479.02                 495.03                 516.72
 Force Cnst:      0.5215                 0.4637                 0.4531
 Red. Mass:       3.8575                 3.2114                 2.8802
 IR Intens:        4.623                  1.037                  3.123
 Frequency:       529.61                 537.78                 547.31
 Force Cnst:      0.5148                 0.4369                 0.4169
 Red. Mass:       3.1151                 2.5640                 2.3623
 IR Intens:        2.706                 14.240                  1.345
 Frequency:       559.18                 564.10                 593.25
 Force Cnst:      0.7146                 1.0520                 0.9585
 Red. Mass:       3.8789                 5.6111                 4.6226
 IR Intens:        8.367                  1.398                  5.810
 Frequency:       605.98                 669.29                 671.47
 Force Cnst:      0.7275                 1.4445                 1.6127
 Red. Mass:       3.3624                 5.4731                 6.0709
 IR Intens:        0.598                  3.261                  2.573
 Frequency:       677.33                 702.59                 741.67
 Force Cnst:      1.1890                 1.2961                 0.8641
 Red. Mass:       4.3988                 4.4565                 2.6662
 IR Intens:        5.306                  0.404                  2.390
 Frequency:       793.12                 799.76                 816.85
 Force Cnst:      0.4705                 1.0176                 0.8905
 Red. Mass:       1.2696                 2.7003                 2.2651
 IR Intens:        7.238                  9.479                 19.082
 Frequency:       818.97                 824.21                 841.25
 Force Cnst:      1.0556                 0.6382                 1.3404
 Red. Mass:       2.6712                 1.5945                 3.2147
 IR Intens:       31.414                 32.597                 33.330
 Frequency:       842.79                 845.21                 855.06
 Force Cnst:      0.6827                 1.6303                 1.2305
 Red. Mass:       1.6314                 3.8734                 2.8566
 IR Intens:        7.443                 44.681                  3.382
 Frequency:       880.98                 912.50                 916.82
 Force Cnst:      1.5883                 0.8604                 1.0220
 Red. Mass:       3.4735                 1.7539                 2.0637
 IR Intens:        3.369                  1.456                  3.354
 Frequency:       925.36                 935.35                 963.50
 Force Cnst:      0.7342                 1.2447                 0.9486
 Red. Mass:       1.4553                 2.4147                 1.7343
 IR Intens:       25.601                  6.743                  7.139
 Frequency:       972.79                 986.77                1004.54
 Force Cnst:      0.9863                 1.6266                 2.0388
 Red. Mass:       1.7689                 2.8353                 3.4291
 IR Intens:        7.674                  1.359                 30.118
 Frequency:      1017.67                1029.50                1030.96
 Force Cnst:      0.9557                 1.3977                 0.9212
 Red. Mass:       1.5662                 2.2383                 1.4711
 IR Intens:       15.407                  3.876                  0.755
 Frequency:      1035.86                1041.97                1045.33
 Force Cnst:      1.2757                 1.3677                 0.8337
 Red. Mass:       2.0178                 2.1381                 1.2950
 IR Intens:        1.104                 21.093                  0.073
 Frequency:      1053.10                1067.35                1076.23
 Force Cnst:      1.0922                 1.5351                 1.4258
 Red. Mass:       1.6715                 2.2870                 2.0893
 IR Intens:        1.177                  6.176                  5.407
 Frequency:      1088.30                1092.98                1099.77
 Force Cnst:      0.9358                 1.9341                 1.6611
 Red. Mass:       1.3411                 2.7479                 2.3310
 IR Intens:        2.095                 28.245                  1.288
 Frequency:      1106.07                1115.90                1119.88
 Force Cnst:      0.9746                 1.6579                 0.9834
 Red. Mass:       1.3521                 2.2597                 1.3308
 IR Intens:        1.836                  3.566                  0.003
 Frequency:      1149.08                1168.21                1172.27
 Force Cnst:      1.1365                 1.5655                 2.0067
 Red. Mass:       1.4609                 1.9470                 2.4785
 IR Intens:        0.046                  1.400                  0.303
 Frequency:      1179.96                1200.92                1205.82
 Force Cnst:      1.8565                 1.3587                 1.7248
 Red. Mass:       2.2631                 1.5990                 2.0134
 IR Intens:        4.835                  7.217                  0.567
 Frequency:      1213.88                1224.63                1230.75
 Force Cnst:      1.8548                 1.6855                 1.2585
 Red. Mass:       2.1364                 1.9075                 1.4101
 IR Intens:        0.390                  0.068                  2.878
 Frequency:      1244.05                1252.38                1279.39
 Force Cnst:      1.5415                 1.5566                 1.2575
 Red. Mass:       1.6905                 1.6845                 1.3039
 IR Intens:        1.224                  5.795                  2.390
 Frequency:      1283.41                1291.64                1302.21
 Force Cnst:      1.1577                 1.5146                 1.5901
 Red. Mass:       1.1929                 1.5409                 1.5915
 IR Intens:        0.321                  0.868                  0.586
 Frequency:      1310.68                1316.62                1334.72
 Force Cnst:      3.0598                 1.5147                 2.7396
 Red. Mass:       3.0231                 1.4830                 2.6102
 IR Intens:        0.167                  1.875                  0.921
 Frequency:      1354.17                1378.91                1383.63
 Force Cnst:      1.6578                 1.7275                 1.5493
 Red. Mass:       1.5344                 1.5420                 1.3735
 IR Intens:        1.727                  1.131                  1.120
 Frequency:      1392.20                1398.60                1404.05
 Force Cnst:      2.0861                 3.9492                 1.5586
 Red. Mass:       1.8267                 3.4266                 1.3419
 IR Intens:        5.241                 20.610                  2.639
 Frequency:      1412.97                1432.50                1447.83
 Force Cnst:      1.6615                 1.7256                 1.6697
 Red. Mass:       1.4125                 1.4272                 1.3519
 IR Intens:        6.115                  6.478                  0.832
 Frequency:      1450.98                1455.54                1462.95
 Force Cnst:      1.6709                 2.2777                 1.6335
 Red. Mass:       1.3470                 1.8248                 1.2954
 IR Intens:        2.191                  8.822                  3.442
 Frequency:      1479.79                1484.99                1487.87
 Force Cnst:      1.7069                 4.1576                 1.8677
 Red. Mass:       1.3230                 3.2000                 1.4319
 IR Intens:        1.382                  1.033                  2.059
 Frequency:      1501.27                1503.94                1506.63
 Force Cnst:      2.5249                 2.0657                 1.9857
 Red. Mass:       1.9014                 1.5501                 1.4847
 IR Intens:        1.092                  2.853                  0.417
 Frequency:      1514.46                1525.35                1532.76
 Force Cnst:      2.0378                 2.1056                 2.2646
 Red. Mass:       1.5079                 1.5360                 1.6361
 IR Intens:        3.060                 10.143                  4.330
 Frequency:      1536.65                1538.01                1542.67
 Force Cnst:      2.1974                 2.0102                 2.2387
 Red. Mass:       1.5795                 1.4423                 1.5966
 IR Intens:       11.460                  1.797                  7.102
 Frequency:      1551.62                1561.78                1576.50
 Force Cnst:      2.4013                 2.3817                 3.3752
 Red. Mass:       1.6929                 1.6573                 2.3050
 IR Intens:        7.048                  8.976                  9.912
 Frequency:      1601.88                1611.99                1617.35
 Force Cnst:      3.0800                 1.6750                 1.6951
 Red. Mass:       2.0373                 1.0940                 1.0999
 IR Intens:        2.900                  1.883                  2.285
 Frequency:      1619.48                1625.36                1630.26
 Force Cnst:      1.7237                 1.8007                 2.0997
 Red. Mass:       1.1155                 1.1569                 1.3409
 IR Intens:        0.309                  8.820                  1.035
 Frequency:      1632.63                1633.82                1639.18
 Force Cnst:      3.5185                 2.5771                 1.8722
 Red. Mass:       2.2404                 1.6386                 1.1827
 IR Intens:        1.154                  1.764                  5.329
 Frequency:      1676.50                1712.95                1776.78
 Force Cnst:      4.8527                 9.8148                11.9854
 Red. Mass:       2.9304                 5.6773                 6.4437
 IR Intens:       19.899                123.671                  0.106
 Frequency:      1806.57                1845.27                3126.23
 Force Cnst:      9.7755                12.0122                 6.2361
 Red. Mass:       5.0837                 5.9876                 1.0830
 IR Intens:       10.942                  8.819                  7.807
 Frequency:      3158.26                3159.26                3165.69
 Force Cnst:      6.2894                 6.2795                 6.3866
 Red. Mass:       1.0702                 1.0678                 1.0816
 IR Intens:       24.727                  6.792                  4.234
 Frequency:      3166.79                3168.86                3176.65
 Force Cnst:      6.3282                 6.3329                 6.3658
 Red. Mass:       1.0710                 1.0704                 1.0707
 IR Intens:       17.367                 10.475                 20.652
 Frequency:      3177.92                3180.48                3186.20
 Force Cnst:      6.4587                 6.3743                 6.3813
 Red. Mass:       1.0854                 1.0695                 1.0669
 IR Intens:       86.627                 87.542                 62.333
 Frequency:      3206.15                3207.48                3212.44
 Force Cnst:      6.5721                 6.6340                 6.6919
 Red. Mass:       1.0851                 1.0945                 1.1006
 IR Intens:       43.192                 49.150                  1.490
 Frequency:      3218.65                3221.47                3225.20
 Force Cnst:      6.6926                 6.7334                 6.7542
 Red. Mass:       1.0965                 1.1012                 1.1021
 IR Intens:       69.277                 39.913                 51.209
 Frequency:      3231.01                3333.24                3335.76
 Force Cnst:      6.7692                 7.1253                 7.1428
 Red. Mass:       1.1006                 1.0885                 1.0895
 IR Intens:      177.937                  3.185                  7.228
 Frequency:      3339.09                3341.13                3343.50
 Force Cnst:      7.1631                 7.1466                 7.1810
 Red. Mass:       1.0904                 1.0866                 1.0903
 IR Intens:       11.403                  7.060                  2.304
 Frequency:      3355.73                3355.84                3362.49
 Force Cnst:      7.2254                 7.2749                 7.2942
 Red. Mass:       1.0890                 1.0964                 1.0950
 IR Intens:       12.609                 49.011                 15.865
 Frequency:      3369.17                3403.90                3408.03
 Force Cnst:      7.3510                 7.4586                 7.4721
 Red. Mass:       1.0991                 1.0926                 1.0919
 IR Intens:       41.524                  1.446                 21.745

 STANDARD THERMODYNAMIC QUANTITIES AT   298.15 K  AND     1.00 ATM

   This Molecule has  0 Imaginary Frequencies
   Zero point vibrational energy:      320.069 kcal/mol

   Atom    1 Element C  Has Mass   12.00000
   Atom    2 Element C  Has Mass   12.00000
   Atom    3 Element C  Has Mass   12.00000
   Atom    4 Element C  Has Mass   12.00000
   Atom    5 Element C  Has Mass   12.00000
   Atom    6 Element C  Has Mass   12.00000
   Atom    7 Element H  Has Mass    1.00783
   Atom    8 Element H  Has Mass    1.00783
   Atom    9 Element H  Has Mass    1.00783
   Atom   10 Element H  Has Mass    1.00783
   Atom   11 Element H  Has Mass    1.00783
   Atom   12 Element H  Has Mass    1.00783
   Atom   13 Element H  Has Mass    1.00783
   Atom   14 Element H  Has Mass    1.00783
   Atom   15 Element C  Has Mass   12.00000
   Atom   16 Element C  Has Mass   12.00000
   Atom   17 Element C  Has Mass   12.00000
   Atom   18 Element C  Has Mass   12.00000
   Atom   19 Element H  Has Mass    1.00783
   Atom   20 Element H  Has Mass    1.00783
   Atom   21 Element H  Has Mass    1.00783
   Atom   22 Element H  Has Mass    1.00783
   Atom   23 Element H  Has Mass    1.00783
   Atom   24 Element H  Has Mass    1.00783
   Atom   25 Element H  Has Mass    1.00783
   Atom   26 Element C  Has Mass   12.00000
   Atom   27 Element C  Has Mass   12.00000
   Atom   28 Element C  Has Mass   12.00000
   Atom   29 Element C  Has Mass   12.00000
   Atom   30 Element H  Has Mass    1.00783
   Atom   31 Element C  Has Mass   12.00000
   Atom   32 Element H  Has Mass    1.00783
   Atom   33 Element C  Has Mass   12.00000
   Atom   34 Element H  Has Mass    1.00783
   Atom   35 Element H  Has Mass    1.00783
   Atom   36 Element C  Has Mass   12.00000
   Atom   37 Element H  Has Mass    1.00783
   Atom   38 Element O  Has Mass   15.99491
   Atom   39 Element C  Has Mass   12.00000
   Atom   40 Element C  Has Mass   12.00000
   Atom   41 Element C  Has Mass   12.00000
   Atom   42 Element C  Has Mass   12.00000
   Atom   43 Element C  Has Mass   12.00000
   Atom   44 Element C  Has Mass   12.00000
   Atom   45 Element H  Has Mass    1.00783
   Atom   46 Element C  Has Mass   12.00000
   Atom   47 Element H  Has Mass    1.00783
   Atom   48 Element C  Has Mass   12.00000
   Atom   49 Element C  Has Mass   12.00000
   Atom   50 Element C  Has Mass   12.00000
   Atom   51 Element H  Has Mass    1.00783
   Atom   52 Element H  Has Mass    1.00783
   Atom   53 Element H  Has Mass    1.00783
   Atom   54 Element H  Has Mass    1.00783
   Atom   55 Element H  Has Mass    1.00783
   Atom   56 Element H  Has Mass    1.00783
   Molecular Mass:   368.214150 amu
   Principal axes and moments of inertia in atomic units:
                             1           2           3
    Eigenvalues --     4827.91750 29979.07300 32188.75196
          X               0.99999    -0.00280     0.00275
          Y               0.00277     0.99994     0.01069
          Z              -0.00278    -0.01068     0.99994
   Rotational Symmetry Number is   1
   The Molecule is an Asymmetric Top
   Translational Enthalpy:        0.889 kcal/mol
   Rotational Enthalpy:           0.889 kcal/mol
   Vibrational Enthalpy:        332.074 kcal/mol
   gas constant (RT):             0.592 kcal/mol
   Translational Entropy:        43.603  cal/mol.K
   Rotational Entropy:           36.786  cal/mol.K
   Vibrational Entropy:          81.049  cal/mol.K

   Total Enthalpy:              334.444 kcal/mol
   Total Entropy:               161.438  cal/mol.K

 Total job time:  63186.81s(wall), 60476.00s(cpu)
        *  Thank you very much for using Q-Chem.  Have a nice day.  *

User input:
--------------------------------------------------------------
$molecule
read
$end

$rem
scf_convergence=10
cis_convergence=10
thresh=12
max_scf_cycles=100
max_cis_cycles=100
MEM_TOTAL	20000
MEM_STATIC	5000
JOBTYPE    force
SYMMETRY   FALSE
EXCHANGE     	HF
CORRELATION  	none  (built-in)
BASIS       	6-31g**
cis_state_deriv   1
cis_n_roots       3
cis_singlets      false
cis_triplets      true
scf_guess read
$end

--------------------------------------------------------------

    6   -1113.6843964280      5.33E-11 Convergence criterion met
 Total energy in the final basis set = -1113.6843964280
 Total job time:  7639.19s(wall), 7619.94s(cpu)

User input:
--------------------------------------------------------------
$molecule
read
$end

$rem
scf_convergence=10
cis_convergence=10
thresh=12
max_scf_cycles=100
max_cis_cycles=100
MEM_TOTAL	20000
MEM_STATIC	5000
JOBTYPE    Force
SYMMETRY   FALSE
EXCHANGE     	HF
CORRELATION  	none  (built-in)
BASIS       	6-31g**
cis_state_deriv   2
cis_n_roots       3
cis_singlets      false
cis_triplets      true
scf_guess read
$end

--------------------------------------------------------------

    2   -1113.6843964282      2.92E-11 Convergence criterion met
 Total energy in the final basis set = -1113.6843964282
        *  Thank you very much for using Q-Chem.  Have a nice day.  *

             Standard Nuclear Orientation (Angstroms)
    I     Atom           X                Y                Z
 ----------------------------------------------------------------
    1      C      -2.1368075154    -1.4328504006    -1.2227338751
    2      C      -0.7473642032    -0.7791599224    -1.3975980938
    3      C       0.1944935669    -0.9141999986    -0.1956630906
    4      C       0.3410953228    -2.3862436648     0.2219004702
    5      C      -1.0251778359    -3.0140492413     0.5137669317
    6      C      -1.9941191738    -2.8666537544    -0.6637038716
    7      H      -0.2670613079    -1.2556911091    -2.2518348482
    8      H      -0.8703377222     0.2682658676    -1.6589831053
    9      H      -2.5378674152    -1.5454045109    -2.2250536344
   10      H       0.7772927879    -2.9218676554    -0.6251693811
   11      H      -0.8989787721    -4.0717593544     0.7339644689
   12      H      -1.4440865154    -2.5716312866     1.4133146084
   13      H      -2.9724183825    -3.2549950567    -0.3961905756
   14      H      -0.2305205997    -0.3675741712     0.6455139877
   15      C       1.5632057979    -0.2908237367    -0.4959862575
   16      C       2.5372844148    -0.4194771542     0.6912050552
   17      C       2.6686966948    -1.8952221191     1.1133121658
   18      C       1.3039001174    -2.5226207955     1.4048516434
   19      H       1.9912417654    -0.7748973573    -1.3726536927
   20      H       1.4413572500     0.7587035585    -0.7517182455
   21      H       3.1596214126    -2.4582080101     0.3218272642
   22      H       3.3092418426    -1.9688898335     1.9878807728
   23      H       1.4299590895    -3.5722854149     1.6598401697
   24      H       0.8660736846    -2.0433279639     2.2805103513
   25      H       2.0899849142     0.1128169623     1.5295568989
   26      C       3.8743888082     0.2285571208     0.4162290349
   27      C       4.3319400378     1.3518921585     1.2050571289
   28      C       4.7468029805    -0.2358918083    -0.6361522560
   29      C       5.5255440116     1.9533179767     0.9807390006
   30      H       3.6961412775     1.7148734252     1.9939305371
   31      C       5.9458883707     0.3416761462    -0.8875666595
   32      H       4.4330161842    -1.0684480086    -1.2402366063
   33      C       6.3937313040     1.4737430172    -0.0814169853
   34      H       5.8446122679     2.7870898417     1.5802350292
   35      H       6.5909152989    -0.0062415764    -1.6699960564
   36      C       7.6662157357     2.0936492159    -0.3401035882
   37      H       7.9364327781     2.9349038850     0.3010206212
   38      O       8.4193176442     1.7246081728    -1.2149733165
   39      C      -4.0045513835     0.5609992987     1.4831984292
   40      C      -5.0954279395     1.0960555432     0.7518503491
   41      C      -3.0757508983    -0.2288243199     0.8859021221
   42      C      -6.0822799329     1.9250076651     1.3470798103
   43      C      -5.1927546747     0.7850451633    -0.6158677319
   44      C      -3.1554532305    -0.5557137842    -0.5000249641
   45      H      -2.2704117252    -0.6097852737     1.4810146125
   46      C      -7.1111613411     2.4152674716     0.6082901259
   47      H      -6.0029894963     2.1596527095     2.3946769291
   48      C      -6.2799270270     1.3116587556    -1.3633355075
   49      C      -4.2043790032    -0.0451190582    -1.2073865490
   50      C      -7.2107714395     2.1029052918    -0.7696358474
   51      H      -7.8559830830     3.0429484869     1.0646978641
   52      H      -6.3557952334     1.0741765287    -2.4104550395
   53      H      -4.3013982310    -0.2711078586    -2.2558559838
   54      H      -8.0305689056     2.4974623138    -1.3436723331
   55      H      -3.9189750252     0.7897687981     2.5318079443
   56      H      -1.6266270170    -3.4925734436    -1.4753194335
 ----------------------------------------------------------------

    6   -1113.6843964285      4.80E-11 Convergence criterion met
 Total energy in the final basis set = -1113.6843964285

               CIS Excitation Energies
 ---------------------------------------------------

 Excited state   1: excitation energy (eV) =    2.5575
    Total energy for state   1:  -1113.590408595838
    Multiplicity: Triplet
    Trans. Mom.:  0.0000 X   0.0000 Y   0.0000 Z
    Strength   :  0.0000
    D( 96) --> V(  4) amplitude = -0.2877
    D( 97) --> V(  1) amplitude = -0.8869

 Excited state   2: excitation energy (eV) =    2.7697
    Total energy for state   2:  -1113.582613021897
    Multiplicity: Triplet
    Trans. Mom.:  0.0000 X   0.0000 Y   0.0000 Z
    Strength   :  0.0000
    D( 95) --> V(  5) amplitude = -0.3223
    D( 98) --> V(  3) amplitude = -0.3637
    D( 99) --> V(  2) amplitude =  0.8061

 ---------------------------------------------------

                    Orbital Energies (a.u.)
 --------------------------------------------------------------

 Alpha MOs
 -- Occupied --
-20.547 -11.321 -11.271 -11.259 -11.252 -11.247 -11.243 -11.242
-11.241 -11.238 -11.238 -11.236 -11.234 -11.233 -11.233 -11.232
-11.231 -11.230 -11.230 -11.227 -11.227 -11.226 -11.225 -11.225
-11.222 -11.221 -11.221 -11.219  -1.377  -1.178  -1.163  -1.146
 -1.119  -1.090  -1.056  -1.043  -1.034  -1.032  -1.014  -0.993
 -0.981  -0.965  -0.898  -0.869  -0.849  -0.841  -0.832  -0.823
 -0.812  -0.809  -0.779  -0.768  -0.755  -0.703  -0.702  -0.691
 -0.668  -0.661  -0.649  -0.638  -0.635  -0.624  -0.619  -0.608
 -0.607  -0.599  -0.596  -0.595  -0.587  -0.579  -0.578  -0.574
 -0.562  -0.542  -0.537  -0.531  -0.528  -0.522  -0.511  -0.506
 -0.504  -0.498  -0.491  -0.484  -0.481  -0.474  -0.470  -0.465
 -0.458  -0.443  -0.439  -0.417  -0.416  -0.413  -0.379  -0.354
 -0.316  -0.311  -0.286

          Ground-State Mulliken Net Atomic Charges

     Atom                 Charge (a.u.)
  ----------------------------------------
      1 C                    -0.165627
      2 C                    -0.189234
      3 C                    -0.133777
      4 C                    -0.121497
      5 C                    -0.208511
      6 C                    -0.208658
      7 H                     0.108347
      8 H                     0.124578
      9 H                     0.128706
     10 H                     0.104292
     11 H                     0.115730
     12 H                     0.105893
     13 H                     0.125789
     14 H                     0.109991
     15 C                    -0.185076
     16 C                    -0.165744
     17 C                    -0.201433
     18 C                    -0.208461
     19 H                     0.108196
     20 H                     0.125726
     21 H                     0.111096
     22 H                     0.124710
     23 H                     0.118179
     24 H                     0.104778
     25 H                     0.125125
     26 C                     0.026560
     27 C                    -0.174306
     28 C                    -0.154013
     29 C                    -0.109032
     30 H                     0.151114
     31 C                    -0.086482
     32 H                     0.153375
     33 C                    -0.180352
     34 H                     0.164969
     35 H                     0.197123
     36 C                     0.396334
     37 H                     0.106846
     38 O                    -0.539787
     39 C                    -0.128207
     40 C                    -0.040328
     41 C                    -0.153480
     42 C                    -0.124538
     43 C                    -0.024763
     44 C                     0.021316
     45 H                     0.141694
     46 C                    -0.160174
     47 H                     0.151110
     48 C                    -0.127292
     49 C                    -0.164173
     50 C                    -0.157913
     51 H                     0.150184
     52 H                     0.151170
     53 H                     0.146372
     54 H                     0.150497
     55 H                     0.151297
     56 H                     0.111761
  ----------------------------------------
  Sum of atomic charges =     0.000000

                    Cartesian Multipole Moments
 -----------------------------------------------------------------
    Charge (ESU x 10^10)
                 0.0000
    Dipole Moment (Debye)
         X      -3.8220      Y      -0.6187      Z       2.1058
       Tot       4.4073
    Quadrupole Moments (Debye-Ang)
        XX    -212.4943     XY      -8.2803     YY    -162.7471
        XZ      18.4889     YZ       9.9337     ZZ    -160.4027

 Total job time:  3813.38s(wall), 3806.11s(cpu)
        *  Thank you very much for using Q-Chem.  Have a nice day.  *
