User input:
--------------------------------------------------------------
$comment
C1,3ea
$end
$molecule
0 1
C      -3.8419929279    -2.4456821618    -0.2690422332
C      -2.6081579205    -1.9079004937    -0.4533255368
C      -2.3809108010    -0.5226414883    -0.2376504594
C      -3.4569172426     0.2869401485     0.1713299491
C      -4.7349041861    -0.3020181167     0.3573413828
C      -4.9235046075    -1.6301445619     0.1432844555
H      -0.2894381774    -0.5682376025    -0.7380447964
H      -4.0043196036    -3.4959395508    -0.4355464269
H      -1.7857076241    -2.5274829045    -0.7665197945
C      -1.1004513260     0.0648792976    -0.4231050259
C      -3.2195426616     1.6704088468     0.3852245842
H      -5.5547126469     0.3211860290     0.6707161523
H      -5.8948950387    -2.0696487921     0.2854059362
C      -1.9844594898     2.2003668334     0.2016845644
C      -0.8891686620     1.3929537380    -0.2131152300
H      -4.0359144267     2.2971163665     0.7007106942
H      -1.8239466495     3.2513547824     0.3720935397
C       0.4638869377     2.0544918303    -0.4445577994
H       0.4951028424     2.4426504343    -1.4594919837
H       0.5294088124     2.9245121242     0.2080254041
C       1.6613532731     1.1754453019    -0.2133060963
C       1.9372633777     0.6714255815     1.1365768977
C       2.5643452548     0.8222956387    -1.2473216246
C       3.0170728042    -0.1015358081     1.3994301576
H       1.2542282181     0.9292951682     1.9263988906
C       3.6587904111     0.0412588689    -1.0162575132
H       2.3761552339     1.1841586041    -2.2435733502
C       3.9268051190    -0.4552844945     0.3432280438
H       3.2059507180    -0.4599134371     2.3959689767
H       4.3429306322    -0.2278976092    -1.7957176595
C       5.0798545363    -1.2789904248     0.6003230883
H       5.2187252084    -1.6118267753     1.6308432733
O       5.8687826459    -1.6008672566    -0.2594648103
$end

$rem
MEM_TOTAL	20000
MEM_STATIC	5000
JOBTYPE    freq
SYMMETRY   FALSE
EXCHANGE     	HF
CORRELATION  	none  (built-in)
BASIS       	6-31g**
cis_state_deriv   1
cis_n_roots       3
cis_singlets      false
cis_triplets      true
max_scf_cycles=100
max_cis_cycles=100
$end

--------------------------------------------------------------

   16    -764.6764408369      4.08E-09 Convergence criterion met
 Total energy in the final basis set = -764.6764408369
 Frequency:        16.48                  25.06                  37.78
 Force Cnst:      0.0007                 0.0023                 0.0034
 Red. Mass:       4.3655                 6.2979                 4.0920
 IR Intens:        0.524                  1.190                  0.648
 Frequency:        85.42                 117.87                 183.50
 Force Cnst:      0.0255                 0.0402                 0.1033
 Red. Mass:       5.9407                 4.9081                 5.2063
 IR Intens:        1.302                  2.850                  3.802
 Frequency:       199.10                 200.20                 233.12
 Force Cnst:      0.1108                 0.1007                 0.1143
 Red. Mass:       4.7432                 4.2652                 3.5697
 IR Intens:        2.206                  3.614                  4.267
 Frequency:       273.37                 294.04                 342.15
 Force Cnst:      0.1556                 0.2214                 0.1770
 Red. Mass:       3.5332                 4.3457                 2.5667
 IR Intens:        1.499                  0.240                  4.062
 Frequency:       397.17                 412.57                 425.30
 Force Cnst:      0.3163                 0.3627                 0.3557
 Red. Mass:       3.4034                 3.6167                 3.3381
 IR Intens:        8.507                  1.354                  8.851
 Frequency:       439.68                 477.77                 525.55
 Force Cnst:      0.3591                 0.6387                 0.5967
 Red. Mass:       3.1523                 4.7490                 3.6669
 IR Intens:        0.713                  0.404                  8.005
 Frequency:       537.88                 551.85                 560.08
 Force Cnst:      0.5040                 1.2986                 1.1310
 Red. Mass:       2.9569                 7.2376                 6.1197
 IR Intens:        8.920                 20.504                  1.293
 Frequency:       568.57                 641.43                 668.55
 Force Cnst:      0.7500                 1.0093                 1.4963
 Red. Mass:       3.9378                 4.1637                 5.6820
 IR Intens:        1.131                  0.336                  4.400
 Frequency:       680.32                 698.55                 767.85
 Force Cnst:      1.4863                 1.0007                 1.1139
 Red. Mass:       5.4502                 3.4807                 3.2066
 IR Intens:        2.145                  0.441                 20.096
 Frequency:       786.13                 793.28                 823.30
 Force Cnst:      0.5215                 1.1825                 0.6113
 Red. Mass:       1.4323                 3.1892                 1.5308
 IR Intens:        8.192                 26.343                 36.563
 Frequency:       836.02                 838.84                 843.61
 Force Cnst:      0.7890                 1.4921                 1.1075
 Red. Mass:       1.9159                 3.5991                 2.6414
 IR Intens:       66.234                  2.414                 12.795
 Frequency:       853.02                 911.64                 944.92
 Force Cnst:      1.3163                 0.7422                 0.9182
 Red. Mass:       3.0704                 1.5156                 1.7455
 IR Intens:        2.518                 37.450                 16.379
 Frequency:       973.16                 977.77                1001.67
 Force Cnst:      0.9913                 2.1366                 1.9744
 Red. Mass:       1.7766                 3.7932                 3.3400
 IR Intens:       22.922                  6.268                 33.400
 Frequency:      1026.79                1028.24                1035.64
 Force Cnst:      0.8875                 0.9388                 0.8280
 Red. Mass:       1.4287                 1.5070                 1.3103
 IR Intens:        6.397                 12.895                  0.352
 Frequency:      1041.06                1057.17                1087.49
 Force Cnst:      2.5579                 1.0932                 0.9546
 Red. Mass:       4.0058                 1.6602                 1.3699
 IR Intens:        2.547                  1.431                  3.592
 Frequency:      1096.13                1101.01                1106.56
 Force Cnst:      1.8884                 1.2490                 1.2198
 Red. Mass:       2.6676                 1.7488                 1.6908
 IR Intens:        0.914                  2.241                  5.724
 Frequency:      1121.16                1178.79                1206.67
 Force Cnst:      0.9886                 1.9799                 1.3156
 Red. Mass:       1.3348                 2.4184                 1.5335
 IR Intens:        0.028                  2.771                  0.995
 Frequency:      1232.24                1247.94                1265.05
 Force Cnst:      1.7054                 1.3461                 1.7171
 Red. Mass:       1.9062                 1.4670                 1.8210
 IR Intens:        2.102                  6.789                  3.711
 Frequency:      1280.95                1290.68                1299.50
 Force Cnst:      1.1225                 2.2085                 1.3964
 Red. Mass:       1.1611                 2.2501                 1.4035
 IR Intens:        0.200                  8.304                  1.829
 Frequency:      1315.60                1354.99                1375.63
 Force Cnst:      3.6030                 1.5088                 1.7873
 Red. Mass:       3.5332                 1.3948                 1.6030
 IR Intens:        4.009                  1.214                  4.496
 Frequency:      1388.03                1419.21                1454.57
 Force Cnst:      2.1873                 4.2813                 2.4073
 Red. Mass:       1.9269                 3.6077                 1.9311
 IR Intens:        5.178                 17.797                 11.188
 Frequency:      1480.23                1483.96                1496.83
 Force Cnst:      4.1802                 1.7405                 5.8048
 Red. Mass:       3.2381                 1.3415                 4.3974
 IR Intens:        2.472                  4.801                  4.053
 Frequency:      1519.94                1528.28                1543.07
 Force Cnst:      2.2536                 2.4906                 1.9387
 Red. Mass:       1.6557                 1.8099                 1.3819
 IR Intens:        4.373                 14.337                 12.747
 Frequency:      1585.44                1596.60                1607.47
 Force Cnst:      3.2594                 3.4810                 1.7060
 Red. Mass:       2.2008                 2.3177                 1.1205
 IR Intens:        2.373                  0.567                  3.642
 Frequency:      1623.60                1632.60                1674.87
 Force Cnst:      4.6215                 3.3807                 5.0968
 Red. Mass:       2.9756                 2.1528                 3.0838
 IR Intens:        6.677                  0.444                 12.865
 Frequency:      1727.52                1779.03                1808.83
 Force Cnst:     11.5669                12.2086                 9.7707
 Red. Mass:       6.5784                 6.5471                 5.0685
 IR Intens:      134.211                  0.270                 14.224
 Frequency:      1846.18                3159.06                3177.21
 Force Cnst:     12.0112                 6.2729                 6.4589
 Red. Mass:       5.9812                 1.0669                 1.0860
 IR Intens:        8.561                 38.646                 78.504
 Frequency:      3207.86                3331.95                3335.82
 Force Cnst:      6.6494                 7.1144                 7.1234
 Red. Mass:       1.0967                 1.0877                 1.0865
 IR Intens:       20.788                  6.682                  1.423
 Frequency:      3342.02                3344.43                3346.11
 Force Cnst:      7.1737                 7.1806                 7.1747
 Red. Mass:       1.0901                 1.0896                 1.0876
 IR Intens:        0.426                 12.204                  5.766
 Frequency:      3350.47                3354.66                3357.35
 Force Cnst:      7.2254                 7.2705                 7.2816
 Red. Mass:       1.0924                 1.0965                 1.0964
 IR Intens:        7.119                 17.756                 61.035
 Frequency:      3366.27                3370.11                3409.41
 Force Cnst:      7.3132                 7.3551                 7.4743
 Red. Mass:       1.0954                 1.0991                 1.0913
 IR Intens:       14.840                 32.936                  1.376

 STANDARD THERMODYNAMIC QUANTITIES AT   298.15 K  AND     1.00 ATM

   This Molecule has  0 Imaginary Frequencies
   Zero point vibrational energy:      174.898 kcal/mol

   Atom    1 Element C  Has Mass   12.00000
   Atom    2 Element C  Has Mass   12.00000
   Atom    3 Element C  Has Mass   12.00000
   Atom    4 Element C  Has Mass   12.00000
   Atom    5 Element C  Has Mass   12.00000
   Atom    6 Element C  Has Mass   12.00000
   Atom    7 Element H  Has Mass    1.00783
   Atom    8 Element H  Has Mass    1.00783
   Atom    9 Element H  Has Mass    1.00783
   Atom   10 Element C  Has Mass   12.00000
   Atom   11 Element C  Has Mass   12.00000
   Atom   12 Element H  Has Mass    1.00783
   Atom   13 Element H  Has Mass    1.00783
   Atom   14 Element C  Has Mass   12.00000
   Atom   15 Element C  Has Mass   12.00000
   Atom   16 Element H  Has Mass    1.00783
   Atom   17 Element H  Has Mass    1.00783
   Atom   18 Element C  Has Mass   12.00000
   Atom   19 Element H  Has Mass    1.00783
   Atom   20 Element H  Has Mass    1.00783
   Atom   21 Element C  Has Mass   12.00000
   Atom   22 Element C  Has Mass   12.00000
   Atom   23 Element C  Has Mass   12.00000
   Atom   24 Element C  Has Mass   12.00000
   Atom   25 Element H  Has Mass    1.00783
   Atom   26 Element C  Has Mass   12.00000
   Atom   27 Element H  Has Mass    1.00783
   Atom   28 Element C  Has Mass   12.00000
   Atom   29 Element H  Has Mass    1.00783
   Atom   30 Element H  Has Mass    1.00783
   Atom   31 Element C  Has Mass   12.00000
   Atom   32 Element H  Has Mass    1.00783
   Atom   33 Element O  Has Mass   15.99491
   Molecular Mass:   246.104530 amu
   Principal axes and moments of inertia in atomic units:
                             1           2           3
    Eigenvalues --     2096.09886 10666.35919 11933.10605
          X               0.99999     0.00399    -0.00028
          Y              -0.00399     0.99999    -0.00228
          Z               0.00027     0.00228     1.00000
   Rotational Symmetry Number is   1
   The Molecule is an Asymmetric Top
   Translational Enthalpy:        0.889 kcal/mol
   Rotational Enthalpy:           0.889 kcal/mol
   Vibrational Enthalpy:        182.273 kcal/mol
   gas constant (RT):             0.592 kcal/mol
   Translational Entropy:        42.402  cal/mol.K
   Rotational Entropy:           33.944  cal/mol.K
   Vibrational Entropy:          49.867  cal/mol.K

   Total Enthalpy:              184.643 kcal/mol
   Total Entropy:               126.213  cal/mol.K

 Total job time:  11704.38s(wall), 11677.16s(cpu)
        *  Thank you very much for using Q-Chem.  Have a nice day.  *

User input:
--------------------------------------------------------------
$molecule
read
$end

$rem
scf_convergence=10
cis_convergence=10
thresh=12
max_scf_cycles=100
max_cis_cycles=100
MEM_TOTAL	20000
MEM_STATIC	5000
JOBTYPE    force
SYMMETRY   FALSE
EXCHANGE     	HF
CORRELATION  	none  (built-in)
BASIS       	6-31g**
cis_state_deriv   1
cis_n_roots       3
cis_singlets      false
cis_triplets      true
scf_guess read
$end

--------------------------------------------------------------

    6    -764.6764408316      5.01E-11 Convergence criterion met
 Total energy in the final basis set = -764.6764408316
 Total job time:  3202.11s(wall), 2372.62s(cpu)

User input:
--------------------------------------------------------------
$molecule
read
$end

$rem
scf_convergence=10
cis_convergence=10
thresh=12
max_scf_cycles=100
max_cis_cycles=100
MEM_TOTAL	20000
MEM_STATIC	5000
JOBTYPE    Force
SYMMETRY   FALSE
EXCHANGE     	HF
CORRELATION  	none  (built-in)
BASIS       	6-31g**
cis_state_deriv   2
cis_n_roots       3
cis_singlets      false
cis_triplets      true
scf_guess read
$end

--------------------------------------------------------------

    2    -764.6764408318      2.05E-11 Convergence criterion met
 Total energy in the final basis set = -764.6764408318
        *  Thank you very much for using Q-Chem.  Have a nice day.  *

             Standard Nuclear Orientation (Angstroms)
    I     Atom           X                Y                Z
 ----------------------------------------------------------------
    1      C      -3.8419929279    -2.4456821618    -0.2690422332
    2      C      -2.6081579205    -1.9079004937    -0.4533255368
    3      C      -2.3809108010    -0.5226414883    -0.2376504594
    4      C      -3.4569172426     0.2869401485     0.1713299491
    5      C      -4.7349041861    -0.3020181167     0.3573413828
    6      C      -4.9235046075    -1.6301445619     0.1432844555
    7      H      -0.2894381774    -0.5682376025    -0.7380447964
    8      H      -4.0043196036    -3.4959395508    -0.4355464269
    9      H      -1.7857076241    -2.5274829045    -0.7665197945
   10      C      -1.1004513260     0.0648792976    -0.4231050259
   11      C      -3.2195426616     1.6704088468     0.3852245842
   12      H      -5.5547126469     0.3211860290     0.6707161523
   13      H      -5.8948950387    -2.0696487921     0.2854059362
   14      C      -1.9844594898     2.2003668334     0.2016845644
   15      C      -0.8891686620     1.3929537380    -0.2131152300
   16      H      -4.0359144267     2.2971163665     0.7007106942
   17      H      -1.8239466495     3.2513547824     0.3720935397
   18      C       0.4638869377     2.0544918303    -0.4445577994
   19      H       0.4951028424     2.4426504343    -1.4594919837
   20      H       0.5294088124     2.9245121242     0.2080254041
   21      C       1.6613532731     1.1754453019    -0.2133060963
   22      C       1.9372633777     0.6714255815     1.1365768977
   23      C       2.5643452548     0.8222956387    -1.2473216246
   24      C       3.0170728042    -0.1015358081     1.3994301576
   25      H       1.2542282181     0.9292951682     1.9263988906
   26      C       3.6587904111     0.0412588689    -1.0162575132
   27      H       2.3761552339     1.1841586041    -2.2435733502
   28      C       3.9268051190    -0.4552844945     0.3432280438
   29      H       3.2059507180    -0.4599134371     2.3959689767
   30      H       4.3429306322    -0.2278976092    -1.7957176595
   31      C       5.0798545363    -1.2789904248     0.6003230883
   32      H       5.2187252084    -1.6118267753     1.6308432733
   33      O       5.8687826459    -1.6008672566    -0.2594648103
 ----------------------------------------------------------------

    2    -764.6764408318      1.59E-11 Convergence criterion met
 Total energy in the final basis set = -764.6764408318

               CIS Excitation Energies
 ---------------------------------------------------

 Excited state   1: excitation energy (eV) =    2.5026
    Total energy for state   1:   -764.584472687927
    Multiplicity: Triplet
    Trans. Mom.:  0.0000 X   0.0000 Y   0.0000 Z
    Strength   :  0.0000
    D( 62) --> V(  4) amplitude = -0.2581
    D( 63) --> V(  1) amplitude = -0.7655
    D( 64) --> V(  1) amplitude = -0.4195

 Excited state   2: excitation energy (eV) =    2.7621
    Total energy for state   2:   -764.574934719847
    Multiplicity: Triplet
    Trans. Mom.:  0.0000 X   0.0000 Y   0.0000 Z
    Strength   :  0.0000
    D( 61) --> V(  5) amplitude =  0.3206
    D( 64) --> V(  3) amplitude = -0.2978
    D( 65) --> V(  2) amplitude =  0.7943

 ---------------------------------------------------

                    Orbital Energies (a.u.)
 --------------------------------------------------------------

 Alpha MOs
 -- Occupied --
-20.550 -11.324 -11.276 -11.259 -11.258 -11.251 -11.249 -11.248
-11.246 -11.245 -11.242 -11.241 -11.238 -11.235 -11.235 -11.235
-11.233 -11.233 -11.232  -1.381  -1.183  -1.160  -1.122  -1.071
 -1.048  -1.036  -1.015  -0.990  -0.954  -0.876  -0.847  -0.831
 -0.821  -0.813  -0.780  -0.707  -0.703  -0.700  -0.676  -0.663
 -0.643  -0.624  -0.619  -0.615  -0.603  -0.595  -0.585  -0.580
 -0.565  -0.560  -0.542  -0.535  -0.528  -0.510  -0.491  -0.487
 -0.476  -0.474  -0.443  -0.419  -0.383  -0.358  -0.323  -0.314
 -0.289

          Ground-State Mulliken Net Atomic Charges

     Atom                 Charge (a.u.)
  ----------------------------------------
      1 C                    -0.158114
      2 C                    -0.126776
      3 C                    -0.032796
      4 C                    -0.039661
      5 C                    -0.126268
      6 C                    -0.158741
      7 H                     0.163383
      8 H                     0.152452
      9 H                     0.155160
     10 C                    -0.131009
     11 C                    -0.122074
     12 H                     0.152444
     13 H                     0.151824
     14 C                    -0.164663
     15 C                    -0.036371
     16 H                     0.155021
     17 H                     0.146956
     18 C                    -0.222263
     19 H                     0.150711
     20 H                     0.145743
     21 C                    -0.015074
     22 C                    -0.149005
     23 C                    -0.167936
     24 C                    -0.112725
     25 H                     0.160843
     26 C                    -0.085119
     27 H                     0.157255
     28 C                    -0.177531
     29 H                     0.166430
     30 H                     0.199313
     31 C                     0.396366
     32 H                     0.108597
     33 O                    -0.536373
  ----------------------------------------
  Sum of atomic charges =     0.000000

                    Cartesian Multipole Moments
 -----------------------------------------------------------------
    Charge (ESU x 10^10)
                 0.0000
    Dipole Moment (Debye)
         X      -3.4796      Y       1.8736      Z       1.3958
       Tot       4.1912
    Quadrupole Moments (Debye-Ang)
        XX    -130.6133     XY       8.3972     YY    -104.5486
        XZ       4.7771     YZ      -1.7292     ZZ    -106.8740

 Total job time:  1254.91s(wall), 1191.11s(cpu)
        *  Thank you very much for using Q-Chem.  Have a nice day.  *
